 Gaussian 09, Revision D.01,
 Gaussian 09:  ES64L-G09RevD.01 24-Apr-2013

 ----------------------------------------------------------------------
 # opt freq scrf=(cpcm,solvent=nitromethane) def2svp m062x temperature=
 363.15
 ----------------------------------------------------------------------

 ---------
 MeNO2 opt
 ---------
 Symbolic Z-matrix:
 Charge =  0 Multiplicity = 1

 SCF Done:  E(RM062X) =  -244.721796072     A.U. after   13 cycles
 SCF Done:  E(RM062X) =  -244.721772797     A.U. after   10 cycles
 SCF Done:  E(RM062X) =  -244.721797406     A.U. after   10 cycles
 Optimization completed.
    -- Stationary point found.
 Normal termination of Gaussian 09 at Wed Jul 28 21:25:32 2021.

 -------------------------------------------------------------------
 #N Geom=AllCheck Guess=TCheck SCRF=Check GenChk RM062X/def2SVP Freq
 -------------------------------------------------------------------

 Structure from the checkpoint file:  "MeNO2_opt.chk"
 ---------
 MeNO2 opt
 ---------
 Charge =  0 Multiplicity = 1

                         Standard orientation:
 ---------------------------------------------------------------------
 Center     Atomic      Atomic             Coordinates (Angstroms)
 Number     Number       Type             X           Y           Z
 ---------------------------------------------------------------------
      1          7           0       -0.169133   -0.000006   -0.011702
      2          8           0       -0.728773   -1.069881    0.003108
      3          8           0       -0.728200    1.070177    0.003109
      4          6           0        1.318221   -0.000275   -0.002434
      5          1           0        1.620765    0.002233    1.051103
      6          1           0        1.654722   -0.912125   -0.500060
      7          1           0        1.654906    0.909222   -0.504258
 ---------------------------------------------------------------------

 SCF Done:  E(RM062X) =  -244.721797406     A.U. after    1 cycles

 The electronic state is 1-A.
 Alpha  occ. eigenvalues --  -19.66919 -19.66912 -15.00736 -10.60927  -1.36692
 Alpha  occ. eigenvalues --   -1.17801  -0.90842  -0.69825  -0.64431  -0.62702
 Alpha  occ. eigenvalues --   -0.60941  -0.50988  -0.49027  -0.39191  -0.38500
 Alpha  occ. eigenvalues --   -0.38305
 Alpha virt. eigenvalues --   -0.01542   0.11558   0.16336   0.16680   0.17568
 Alpha virt. eigenvalues --    0.34161   0.42487   0.46780   0.49120   0.51701
 Alpha virt. eigenvalues --    0.62246   0.68276   0.69265   0.69381   0.77513

 Mulliken charges:
               1
     1  N    0.201870
     2  O   -0.293752
     3  O   -0.293810
     4  C    0.065185
     5  H    0.123601
     6  H    0.098395
     7  H    0.098510
 Sum of Mulliken charges =   0.00000

 Dipole moment (field-independent basis, Debye):
    X=              4.2897    Y=             -0.0007    Z=              0.0595  Tot=              4.2902
 Quadrupole moment (field-independent basis, Debye-Ang):
   XX=            -21.4454   YY=            -26.6051   ZZ=            -21.0694
   XY=             -0.0003   XZ=              0.1681   YZ=              0.0000

  Exact polarizability:  28.196   0.006  39.092   0.149   0.000  18.870
 Approx polarizability:  25.908   0.010  47.399   0.215   0.000  18.803

 ******    1 imaginary frequencies (negative Signs) ******

                      1                      2                      3
                      A                      A                      A
 Frequencies --   -110.5495               499.2935               625.9601
 Red. masses --      1.0973                 3.2388                 3.0803
 Frc consts  --      0.0079                 0.4757                 0.7111
 IR Inten    --      0.1690                 0.9254                11.5860

                      4                      5                      6
                      A                      A                      A
 Frequencies --    701.8238               987.2154              1110.2353
 Red. masses --      6.0807                 8.8184                 1.4059
 Frc consts  --      1.7646                 5.0637                 1.0210
 IR Inten    --     45.5339                17.5781                13.5769

                      7                      8                      9
                      A                      A                      A
 Frequencies --   1130.8695              1387.0784              1423.5350
 Red. masses --      1.6404                 1.1907                 1.0467
 Frc consts  --      1.2360                 1.3498                 1.2497
 IR Inten    --      6.5882                11.9155                56.1660

                     10                     11                     12
                      A                      A                      A
 Frequencies --   1442.5644              1555.3771              1770.0184
 Red. masses --      1.0531                13.4461                11.5086
 Frc consts  --      1.2912                19.1655                21.2436
 IR Inten    --     22.6655               146.4973               599.0508

                     13                     14                     15
                      A                      A                      A
 Frequencies --   3106.2451              3227.6348              3261.4743
 Red. masses --      1.0309                 1.1073                 1.1138
 Frc consts  --      5.8606                 6.7963                 6.9806
 IR Inten    --      0.6629                 3.2672                 1.8774

 - Thermochemistry -
 -------------------
 Temperature   363.150 Kelvin.  Pressure   1.00000 Atm.
 Atom     1 has atomic number  7 and mass  14.00307

 Molecular mass:    61.01638 amu.
 Principal axes and moments of inertia in atomic units:
                           1         2         3
     Eigenvalues --   142.56674 170.08925 301.05744
           X            1.00000  -0.00014   0.00101
           Y            0.00014   1.00000   0.00000
           Z           -0.00101   0.00000   1.00000
 This molecule is an asymmetric top.
 Rotational symmetry number  1.
 Rotational temperatures (Kelvin)      0.60753     0.50923     0.28770
 Rotational constants (GHZ):          12.65892    10.61055     5.99467
    1 imaginary frequencies ignored.
 Zero-point vibrational energy     132960.9 (Joules/Mol)
                                   31.77842 (Kcal/Mol)
 Warning -- explicit consideration of   3 degrees of freedom as
           vibrations may cause significant error
 Vibrational temperatures:    718.37   900.62  1009.77  1420.38  1597.38
          (Kelvin)           1627.07  1995.69  2048.15  2075.53  2237.84
                             2546.66  4469.19  4643.84  4692.53

 Zero-point correction=                           0.050642 (Hartree/Particle)
 Thermal correction to Energy=                    0.055237
 Thermal correction to Enthalpy=                  0.056387
 Thermal correction to Gibbs Free Energy=         0.018187
 Sum of electronic and zero-point Energies=           -244.671155
 Sum of electronic and thermal Energies=              -244.666561
 Sum of electronic and thermal Enthalpies=            -244.665411
 Sum of electronic and thermal Free Energies=         -244.703611

                     E (Thermal)             CV                S
                      KCal/Mol        Cal/Mol-Kelvin    Cal/Mol-Kelvin
 Total                   34.661             12.233             66.008
 Electronic               0.000              0.000              0.000
 Translational            1.082              2.981             39.225
 Rotational               1.082              2.981             24.093
 Vibrational             32.497              6.272              2.690
 Vibration     1          0.943              1.449              0.927
 Vibration     2          1.058              1.219              0.624
 Vibration     3          1.136              1.083              0.492

 Optimization completed.
    -- Stationary point found.
 Normal termination of Gaussian 09 at Wed Jul 28 21:25:50 2021.
