 Gaussian 09, Revision D.01,
 Gaussian 09:  ES64L-G09RevD.01 24-Apr-2013

 ----------------------------------------------------------------------
 # freq pm6 scrf=(cpcm,solvent=water) geom=connectivity empiricaldisper
 sion=gd3
 ----------------------------------------------------------------------

 -------------------
 Title Card Required
 -------------------
 Symbolic Z-matrix:
 Charge =  0 Multiplicity = 1

                         Standard orientation:
 ---------------------------------------------------------------------
 Center     Atomic      Atomic             Coordinates (Angstroms)
 Number     Number       Type             X           Y           Z
 ---------------------------------------------------------------------
      1          6           0       -2.412871    2.644484    0.284176
      2          6           0       -2.684755    1.286754    0.260738
      3          6           0       -1.673984    0.363203   -0.103049
      4          6           0       -0.388309    0.847051   -0.438860
      5          6           0       -0.133420    2.238167   -0.414866
      6          6           0       -1.130614    3.126893   -0.055417
      7          1           0       -3.192463    3.354947    0.565800
      8          1           0       -3.682599    0.935321    0.523473
      9          1           0        0.866999    2.589341   -0.681314
     10          1           0       -0.936486    4.199115   -0.031172
     11          6           0        0.676394   -0.092689   -0.827210
     12          6           0       -1.891739   -1.067829   -0.156147
     13          6           0        0.406881   -1.493811   -0.825979
     14          1           0        1.028845   -2.145626   -1.446789
     15          6           0       -0.929611   -1.949267   -0.533786
     16          1           0       -1.126198   -3.022205   -0.602826
     17          8           0        1.863009    0.343698   -1.035294
     18         17           0       -3.456275   -1.670006    0.272541
     19          6           0        3.067336   -0.099035    0.378881
     20          6           0        2.751818   -1.477501    0.441603
     21          1           0        3.430457   -2.172066   -0.057276
     22          6           0        4.312920    0.333747   -0.328410
     23          1           0        4.707593   -0.424825   -1.017432
     24          1           0        4.130783    1.238783   -0.931353
     25          1           0        5.118147    0.581992    0.379686
     26          6           0        2.540754    0.866790    1.395405
     27          1           0        1.509418    0.654001    1.710720
     28          1           0        3.161333    0.842673    2.305826
     29          1           0        2.548562    1.904823    1.031549
     30          6           0        1.507552   -1.944046    0.842831
     31          1           0        1.301225   -3.013444    0.851875
     32          1           0        0.876879   -1.379791    1.528943
 ---------------------------------------------------------------------

 SCF Done:  E(RPM6D3) =  0.147095614877E-01 A.U. after   22 cycles

 The electronic state is 1-A.
 Alpha  occ. eigenvalues --   -1.13407  -1.11032  -1.07700  -1.06539  -1.00352
 Alpha  occ. eigenvalues --   -0.98041  -0.96307  -0.94695  -0.91333  -0.89313
 Alpha  occ. eigenvalues --   -0.82181  -0.80987  -0.80093  -0.75674  -0.68912
 Alpha  occ. eigenvalues --   -0.66000  -0.65167  -0.62834  -0.60261  -0.59876
 Alpha  occ. eigenvalues --   -0.57250  -0.56890  -0.56323  -0.54392  -0.54161
 Alpha  occ. eigenvalues --   -0.53007  -0.52045  -0.50617  -0.50175  -0.49462
 Alpha  occ. eigenvalues --   -0.48889  -0.48467  -0.47269  -0.46589  -0.46461
 Alpha  occ. eigenvalues --   -0.45673  -0.44658  -0.42081  -0.41318  -0.39429
 Alpha  occ. eigenvalues --   -0.38541  -0.37528  -0.34478  -0.31546
 Alpha virt. eigenvalues --   -0.03190  -0.02340   0.00335   0.02184   0.02620
 Alpha virt. eigenvalues --    0.03795   0.07260   0.09497   0.12169   0.12806
 Alpha virt. eigenvalues --    0.13760   0.13919   0.14325   0.14992   0.15377

 Mulliken charges:
               1
     1  C   -0.083574
     2  C   -0.217418
     3  C    0.087175
     4  C   -0.187625
     5  C   -0.071740
     6  C   -0.200040
     7  H    0.155240
     8  H    0.171068
     9  H    0.164202
    10  H    0.164123
    11  C    0.449465
    12  C   -0.092670
    13  C   -0.391170
    14  H    0.192160
    15  C   -0.064493
    16  H    0.167348
    17  O   -0.611520
    18  Cl  -0.107723
    19  C    0.525094
    20  C   -0.467666
    21  H    0.180883
    22  C   -0.576434
    23  H    0.182011
    24  H    0.195932
    25  H    0.190137
    26  C   -0.580723
    27  H    0.185622
    28  H    0.190904
    29  H    0.190567
    30  C   -0.022850
    31  H    0.143966
    32  H    0.139749
 Sum of Mulliken charges =   0.00000

 Dipole moment (field-independent basis, Debye):
    X=              3.1039    Y=              0.5108    Z=              2.8202  Tot=              4.2247
 N-N= 6.574605895413D+02 E-N=-1.202188424418D+03  KE=-5.670392190612D+01
  Exact polarizability: 317.684 -13.556 248.841 -18.661   4.665  83.309
 Approx polarizability: 170.396   1.444 150.180 -17.495   1.428  51.779
 PrsmSu:  requested number of processors reduced to:   1 ShMem   1 Linda.
 D2PCM: C-PCM CHGder 2nd derivatives, FixD1E=F FixD2E=F DoIter=F DoCFld=F I1PDM=0
 Calling FoFJK, ICntrl=    100127 FMM=F ISym2X=0 I1Cent= 0 IOpClX= 0 NMat=1 NMatS=1 NMatT=0.
 CoulSu:  requested number of processors reduced to:   2 ShMem   1 Linda.
 Full mass-weighted force constant matrix:
 Low frequencies --- -710.6163   -7.1335   -0.2509   -0.1256    0.0500    7.4755
 Low frequencies ---    8.1105   45.3765   58.5176
 ******    1 imaginary frequencies (negative Signs) ******

                      1                      2                      3
                      A                      A                      A
 Frequencies --   -710.6162                45.3340                58.4941
 Red. masses --      9.9445                 4.4571                 4.1175
 Frc consts  --      2.9587                 0.0054                 0.0083
 IR Inten    --    760.8497                 0.3165                 2.9720

                      4                      5                      6
                      A                      A                      A
 Frequencies --     77.7645                83.4670               106.5586
 Red. masses --      1.1010                 3.5797                 3.8645
 Frc consts  --      0.0039                 0.0147                 0.0259
 IR Inten    --      1.0678                 1.4960                 1.0959

                      7                      8                      9
                      A                      A                      A
 Frequencies --    119.2514               168.3247               181.1809
 Red. masses --      1.0409                 5.1780                 3.5926
 Frc consts  --      0.0087                 0.0864                 0.0695
 IR Inten    --      1.1718               175.4739                22.2680

                     10                     11                     12
                      A                      A                      A
 Frequencies --    198.0718               217.7226               231.3078
 Red. masses --      4.2921                 9.7689                 4.2829
 Frc consts  --      0.0992                 0.2728                 0.1350
 IR Inten    --      2.4197                50.1934                79.4060

                     13                     14                     15
                      A                      A                      A
 Frequencies --    264.6849               301.4192               324.9880
 Red. masses --      2.8328                 3.5979                 7.2535
 Frc consts  --      0.1169                 0.1926                 0.4514
 IR Inten    --     21.3378                32.0149                55.7660

                     16                     17                     18
                      A                      A                      A
 Frequencies --    363.1916               380.0904               393.3470
 Red. masses --      3.7450                 3.9468                 2.9858
 Frc consts  --      0.2911                 0.3359                 0.2722
 IR Inten    --     17.3913                 2.5090                 3.8315

                     19                     20                     21
                      A                      A                      A
 Frequencies --    401.6038               432.6630               444.2270
 Red. masses --      3.5317                 2.7616                 2.5511
 Frc consts  --      0.3356                 0.3046                 0.2966
 IR Inten    --      3.2076                20.3240                15.3029

                     22                     23                     24
                      A                      A                      A
 Frequencies --    475.2883               528.4997               538.2469
 Red. masses --      5.1488                 5.1041                 3.3623
 Frc consts  --      0.6853                 0.8400                 0.5739
 IR Inten    --      0.5576                 7.3431                 3.8064

                     25                     26                     27
                      A                      A                      A
 Frequencies --    541.1226               557.5619               656.1317
 Red. masses --      3.1563                 5.1309                 7.1017
 Frc consts  --      0.5445                 0.9398                 1.8013
 IR Inten    --     20.0196                 4.2443                24.2390

                     28                     29                     30
                      A                      A                      A
 Frequencies --    671.3873               754.5992               773.3888
 Red. masses --      4.2926                 6.6277                 4.0569
 Frc consts  --      1.1400                 2.2236                 1.4297
 IR Inten    --     27.6216                17.8381                87.6474

                     31                     32                     33
                      A                      A                      A
 Frequencies --    788.3030               804.8130               814.9146
 Red. masses --      2.2323                 1.3637                 2.1673
 Frc consts  --      0.8173                 0.5204                 0.8480
 IR Inten    --     37.8176                35.8280                74.5244

                     34                     35                     36
                      A                      A                      A
 Frequencies --    891.2397               900.9047               902.7947
 Red. masses --      2.0468                 1.4781                 1.2312
 Frc consts  --      0.9579                 0.7068                 0.5912
 IR Inten    --     15.6247                 3.6228               214.4814

                     37                     38                     39
                      A                      A                      A
 Frequencies --    917.5508               931.5978               945.1770
 Red. masses --      1.4115                 1.2660                 1.4160
 Frc consts  --      0.7001                 0.6473                 0.7453
 IR Inten    --     33.0003                14.6519                13.0813

                     40                     41                     42
                      A                      A                      A
 Frequencies --    952.0649               958.9199               961.9920
 Red. masses --      3.4654                 1.3192                 1.5040
 Frc consts  --      1.8507                 0.7147                 0.8200
 IR Inten    --    149.3665                41.7579                 4.3209

                     43                     44                     45
                      A                      A                      A
 Frequencies --    986.6679               987.6149              1033.7904
 Red. masses --      1.6766                 1.5114                 1.5462
 Frc consts  --      0.9616                 0.8686                 0.9736
 IR Inten    --      2.1879                16.7788               369.5228

                     46                     47                     48
                      A                      A                      A
 Frequencies --   1051.1822              1099.0381              1111.4756
 Red. masses --      1.5842                 1.9638                 1.8535
 Frc consts  --      1.0314                 1.3976                 1.3491
 IR Inten    --    189.9135                74.6061                23.7035

                     49                     50                     51
                      A                      A                      A
 Frequencies --   1121.4163              1151.9316              1161.8910
 Red. masses --      1.6590                 1.3375                 1.3789
 Frc consts  --      1.2292                 1.0457                 1.0968
 IR Inten    --     34.7693                18.1877                25.3296

                     52                     53                     54
                      A                      A                      A
 Frequencies --   1189.2750              1193.8127              1198.2808
 Red. masses --      1.2819                 1.0628                 1.0731
 Frc consts  --      1.0682                 0.8924                 0.9078
 IR Inten    --      0.8506                70.6172               153.9108

                     55                     56                     57
                      A                      A                      A
 Frequencies --   1213.3579              1220.2443              1230.1484
 Red. masses --      1.0604                 1.0645                 1.5916
 Frc consts  --      0.9198                 0.9339                 1.4191
 IR Inten    --     19.2348               116.3489                38.1238

                     58                     59                     60
                      A                      A                      A
 Frequencies --   1247.2711              1283.9751              1287.8392
 Red. masses --      1.3711                 1.6527                 1.6360
 Frc consts  --      1.2567                 1.6053                 1.5987
 IR Inten    --     35.6767                29.6522                50.0029

                     61                     62                     63
                      A                      A                      A
 Frequencies --   1300.5494              1302.0856              1312.8257
 Red. masses --      1.2321                 1.2130                 1.9276
 Frc consts  --      1.2279                 1.2117                 1.9574
 IR Inten    --    255.1811                53.6719               193.2627

                     64                     65                     66
                      A                      A                      A
 Frequencies --   1315.9609              1354.7952              1397.0590
 Red. masses --      1.3109                 2.8364                 3.4436
 Frc consts  --      1.3376                 3.0674                 3.9599
 IR Inten    --     82.4460               156.8550                62.4232

                     67                     68                     69
                      A                      A                      A
 Frequencies --   1412.6344              1445.0802              1457.7555
 Red. masses --      7.2668                 5.8564                 5.4898
 Frc consts  --      8.5438                 7.2055                 6.8735
 IR Inten    --     41.8246                31.1325                94.8314

                     70                     71                     72
                      A                      A                      A
 Frequencies --   1478.4460              1519.1128              1589.1531
 Red. masses --      4.7388                 6.1169                10.1492
 Frc consts  --      6.1029                 8.3169                15.1013
 IR Inten    --      3.0761                84.3003               861.1749

                     73                     74                     75
                      A                      A                      A
 Frequencies --   1611.7036              1654.6461              1674.7726
 Red. masses --     10.8463                10.6268                10.3155
 Frc consts  --     16.5998                17.1420                17.0472
 IR Inten    --    304.2769                88.3900               121.9450

                     76                     77                     78
                      A                      A                      A
 Frequencies --   2672.4845              2674.5351              2678.3656
 Red. masses --      1.0854                 1.0848                 1.0859
 Frc consts  --      4.5674                 4.5721                 4.5897
 IR Inten    --     59.7715               205.9446               120.7414

                     79                     80                     81
                      A                      A                      A
 Frequencies --   2683.2457              2688.9590              2728.3141
 Red. masses --      1.0869                 1.0931                 1.0697
 Frc consts  --      4.6107                 4.6566                 4.6916
 IR Inten    --    149.3841                41.3981                72.5648

                     82                     83                     84
                      A                      A                      A
 Frequencies --   2731.5437              2736.3421              2737.1192
 Red. masses --      1.0715                 1.0718                 1.0713
 Frc consts  --      4.7106                 4.7283                 4.7286
 IR Inten    --    182.9121                82.8626               278.9843

                     85                     86                     87
                      A                      A                      A
 Frequencies --   2742.7851              2744.5081              2750.8332
 Red. masses --      1.0540                 1.0713                 1.0717
 Frc consts  --      4.6715                 4.7543                 4.7779
 IR Inten    --    306.0518               329.9667               329.4569

                     88                     89                     90
                      A                      A                      A
 Frequencies --   2754.9729              2781.3277              2786.4679
 Red. masses --      1.0786                 1.0310                 1.0323
 Frc consts  --      4.8231                 4.6992                 4.7222
 IR Inten    --    156.5112                70.9872               147.3441

 - Thermochemistry -
 -------------------
 Temperature   298.150 Kelvin.  Pressure   1.00000 Atm.
 Atom     1 has atomic number  6 and mass  12.00000

 Molecular mass:   246.08114 amu.
 Principal axes and moments of inertia in atomic units:
                           1         2         3
     Eigenvalues --  2618.316385356.125227250.48424
           X            0.99973  -0.02300   0.00308
           Y            0.02296   0.99968   0.01097
           Z           -0.00333  -0.01090   0.99994
 This molecule is an asymmetric top.
 Rotational symmetry number  1.
 Warning -- assumption of classical behavior for rotation
           may cause significant error
 Rotational temperatures (Kelvin)      0.03308     0.01617     0.01195
 Rotational constants (GHZ):           0.68928     0.33695     0.24891
    1 imaginary frequencies ignored.
 Zero-point vibrational energy     625334.6 (Joules/Mol)
                                  149.45856 (Kcal/Mol)
 Warning -- explicit consideration of  25 degrees of freedom as
           vibrations may cause significant error
 Vibrational temperatures:     65.23    84.16   111.89   120.09   153.31
          (Kelvin)            171.58   242.18   260.68   284.98   313.25
                              332.80   380.82   433.67   467.58   522.55
                              546.86   565.94   577.82   622.50   639.14
                              683.83   760.39   774.42   778.55   802.21
                              944.03   965.98  1085.70  1112.73  1134.19
                             1157.94  1172.48  1282.29  1296.20  1298.92
                             1320.15  1340.36  1359.90  1369.81  1379.67
                             1384.09  1419.59  1420.96  1487.39  1512.41
                             1581.27  1599.16  1613.47  1657.37  1671.70
                             1711.10  1717.63  1724.06  1745.75  1755.66
                             1769.91  1794.54  1847.35  1852.91  1871.20
                             1873.41  1888.86  1893.37  1949.25  2010.05
                             2032.46  2079.15  2097.38  2127.15  2185.66
                             2286.43  2318.88  2380.66  2409.62  3845.10
                             3848.05  3853.57  3860.59  3868.81  3925.43
                             3930.08  3936.98  3938.10  3946.25  3948.73
                             3957.83  3963.79  4001.71  4009.10

 Zero-point correction=                           0.238177 (Hartree/Particle)
 Thermal correction to Energy=                    0.254190
 Thermal correction to Enthalpy=                  0.255134
 Thermal correction to Gibbs Free Energy=         0.194765
 Sum of electronic and zero-point Energies=              0.252887
 Sum of electronic and thermal Energies=                 0.268899
 Sum of electronic and thermal Enthalpies=               0.269844
 Sum of electronic and thermal Free Energies=            0.209475

                     E (Thermal)             CV                S
                      KCal/Mol        Cal/Mol-Kelvin    Cal/Mol-Kelvin
 Total                  159.507             61.851            127.057
 Electronic               0.000              0.000              0.000
 Translational            0.889              2.981             42.402
 Rotational               0.889              2.981             32.986
 Vibrational            157.729             55.890             51.669
 Vibration     1          0.595              1.979              5.011
 Vibration     2          0.596              1.974              4.507
 Vibration     3          0.599              1.964              3.947
 Vibration     4          0.600              1.961              3.808
 Vibration     5          0.605              1.944              3.331
 Vibration     6          0.609              1.933              3.112
 Vibration     7          0.625              1.881              2.454
 Vibration     8          0.630              1.865              2.316
 Vibration     9          0.637              1.843              2.151
 Vibration    10          0.646              1.814              1.978
 Vibration    11          0.653              1.793              1.869
 Vibration    12          0.671              1.738              1.631
 Vibration    13          0.693              1.671              1.409
 Vibration    14          0.709              1.625              1.285
 Vibration    15          0.737              1.548              1.108
 Vibration    16          0.750              1.513              1.039
 Vibration    17          0.761              1.484              0.987
 Vibration    18          0.767              1.467              0.957
 Vibration    19          0.794              1.399              0.850
 Vibration    20          0.804              1.374              0.813
 Vibration    21          0.832              1.305              0.723
 Vibration    22          0.883              1.187              0.591
 Vibration    23          0.893              1.165              0.569
 Vibration    24          0.896              1.159              0.563
 Vibration    25          0.913              1.123              0.529

 Normal termination of Gaussian 09 at Thu Aug 20 21:24:46 2020.
