 Gaussian 09, Revision D.01,
 Gaussian 09:  ES64L-G09RevD.01 24-Apr-2013

 ----------------------------------------------------------------------
 # opt freq pm6 scrf=(cpcm,solvent=water) geom=connectivity empiricaldi
 spersion=gd3
 ----------------------------------------------------------------------

 -------------------
 Title Card Required
 -------------------
 Symbolic Z-matrix:
 Charge =  0 Multiplicity = 1

 SCF Done:  E(RPM6D3) = -0.415738590057E-01 A.U. after   20 cycles
 SCF Done:  E(RPM6D3) = -0.415993304302E-01 A.U. after   15 cycles
 SCF Done:  E(RPM6D3) = -0.416018677977E-01 A.U. after   14 cycles
 SCF Done:  E(RPM6D3) = -0.416097911631E-01 A.U. after   13 cycles
 SCF Done:  E(RPM6D3) = -0.416142965627E-01 A.U. after   13 cycles
 SCF Done:  E(RPM6D3) = -0.416577791578E-01 A.U. after   14 cycles
 SCF Done:  E(RPM6D3) = -0.357049591079E-01 A.U. after   17 cycles
 SCF Done:  E(RPM6D3) = -0.416656020883E-01 A.U. after    9 cycles
 SCF Done:  E(RPM6D3) = -0.270530277908E-01 A.U. after   17 cycles
 SCF Done:  E(RPM6D3) = -0.416682923880E-01 A.U. after   10 cycles
 SCF Done:  E(RPM6D3) = -0.420520552879E-01 A.U. after   14 cycles
 SCF Done:  E(RPM6D3) = -0.420060597869E-01 A.U. after   17 cycles
 SCF Done:  E(RPM6D3) = -0.419839843652E-01 A.U. after   17 cycles
 SCF Done:  E(RPM6D3) = -0.421356715167E-01 A.U. after   15 cycles
 SCF Done:  E(RPM6D3) = -0.421252949631E-01 A.U. after   15 cycles
 SCF Done:  E(RPM6D3) = -0.421596610250E-01 A.U. after   15 cycles
 SCF Done:  E(RPM6D3) = -0.421609834490E-01 A.U. after   14 cycles
 SCF Done:  E(RPM6D3) = -0.421614173957E-01 A.U. after   13 cycles
 SCF Done:  E(RPM6D3) = -0.421614412803E-01 A.U. after   10 cycles
 Optimization completed.
    -- Stationary point found.
 Normal termination of Gaussian 09 at Thu Aug 20 14:17:40 2020.

 -------------------------------------------------------------
 #N Geom=AllCheck Guess=TCheck SCRF=Check GenChk RPM6/ZDO Freq
 -------------------------------------------------------------

 Structure from the checkpoint file:  "pr_claisen_PM6_toluene_water.chk"
 -------------------
 Title Card Required
 -------------------
 Charge =  0 Multiplicity = 1

                         Standard orientation:
 ---------------------------------------------------------------------
 Center     Atomic      Atomic             Coordinates (Angstroms)
 Number     Number       Type             X           Y           Z
 ---------------------------------------------------------------------
      1          6           0        4.287134   -0.467740    0.450187
      2          6           0        3.378975    0.576696    0.258147
      3          6           0        2.034254    0.296312   -0.026498
      4          6           0        1.609249   -1.049198   -0.114388
      5          6           0        2.534070   -2.088365    0.076391
      6          6           0        3.868718   -1.799959    0.359479
      7          1           0        5.332907   -0.240724    0.672534
      8          1           0        3.735447    1.605237    0.337158
      9          1           0        2.196613   -3.126163    0.002161
     10          1           0        4.584437   -2.609505    0.509636
     11          6           0        0.194416   -1.388507   -0.409840
     12          6           0        1.032175    1.344613   -0.235907
     13          6           0       -0.849727   -0.276427   -0.361668
     14          6           0       -0.278770    1.106030   -0.387084
     15          1           0       -1.010968    1.907160   -0.526380
     16          8           0       -0.146531   -2.527984   -0.680639
     17         17           0        1.606046    2.974853   -0.295635
     18          6           0       -4.108992    0.000637    0.234120
     19          6           0       -2.967614    0.364440    0.842776
     20          1           0       -2.885038    1.328412    1.343341
     21          6           0       -5.304095    0.902161    0.227968
     22          1           0       -6.133404    0.468489    0.805925
     23          1           0       -5.100857    1.892135    0.656838
     24          1           0       -5.680126    1.065742   -0.792129
     25          6           0       -4.288034   -1.299007   -0.483130
     26          1           0       -4.098004   -1.181550   -1.560569
     27          1           0       -3.604045   -2.080416   -0.121944
     28          1           0       -5.307539   -1.694822   -0.382013
     29          6           0       -1.729005   -0.473161    0.901342
     30          1           0       -1.138487   -0.224882    1.807055
     31          1           0       -1.990082   -1.550711    0.998305
     32          1           0       -1.507934   -0.398175   -1.270382
 ---------------------------------------------------------------------

 SCF Done:  E(RPM6D3) = -0.421614412844E-01 A.U. after    2 cycles

 The electronic state is 1-A.
 Alpha  occ. eigenvalues --   -1.17941  -1.12642  -1.09439  -1.05894  -1.01636
 Alpha  occ. eigenvalues --   -0.98729  -0.96982  -0.94063  -0.90693  -0.90119
 Alpha  occ. eigenvalues --   -0.83774  -0.81953  -0.79183  -0.76399  -0.67882
 Alpha  occ. eigenvalues --   -0.66632  -0.65145  -0.63339  -0.60145  -0.58189
 Alpha  occ. eigenvalues --   -0.57630  -0.57373  -0.55994  -0.55017  -0.54651
 Alpha  occ. eigenvalues --   -0.54101  -0.52633  -0.52023  -0.51210  -0.49744
 Alpha  occ. eigenvalues --   -0.49445  -0.47887  -0.47457  -0.47224  -0.46634
 Alpha  occ. eigenvalues --   -0.45644  -0.44953  -0.43639  -0.41651  -0.39577
 Alpha  occ. eigenvalues --   -0.39042  -0.37992  -0.35636  -0.34748
 Alpha virt. eigenvalues --   -0.04195  -0.01973   0.01773   0.01965   0.02414
 Alpha virt. eigenvalues --    0.04174   0.08000   0.08887   0.10758   0.11602
 Alpha virt. eigenvalues --    0.12956   0.13384   0.13761   0.14201   0.15203

 Mulliken charges:
               1
     1  C   -0.053103
     2  C   -0.223215
     3  C    0.116304
     4  C   -0.258549
     5  C   -0.030650
     6  C   -0.206808
     7  H    0.159889
     8  H    0.179078
     9  H    0.164274
    10  H    0.171174
    11  C    0.564809
    12  C   -0.059861
    13  C   -0.247763
    14  C   -0.095510
    15  H    0.179545
    16  O   -0.554204
    17  Cl  -0.089615
    18  C    0.183750
    19  C   -0.328902
    20  H    0.160100
    21  C   -0.526570
    22  H    0.174001
    23  H    0.167879
    24  H    0.173168
    25  C   -0.523770
    26  H    0.174866
    27  H    0.169257
    28  H    0.170313
    29  C   -0.204623
    30  H    0.146458
    31  H    0.151134
    32  H    0.197144
 Sum of Mulliken charges =   0.00000

 Dipole moment (field-independent basis, Debye):
    X=             -0.4826    Y=              1.1256    Z=              0.7120  Tot=              1.4166
 N-N= 6.261351090482D+02 E-N=-1.139491726537D+03  KE=-5.614750487097D+01
  Exact polarizability: 283.297  13.901 209.531  45.548  10.386  68.319
 Approx polarizability: 144.674  10.589 127.022  23.923   6.621  40.594
 PrsmSu:  requested number of processors reduced to:   1 ShMem   1 Linda.
 D2PCM: C-PCM CHGder 2nd derivatives, FixD1E=F FixD2E=F DoIter=F DoCFld=F I1PDM=0
 Calling FoFJK, ICntrl=    100127 FMM=F ISym2X=0 I1Cent= 0 IOpClX= 0 NMat=1 NMatS=1 NMatT=0.
 CoulSu:  requested number of processors reduced to:   2 ShMem   1 Linda.
 Full mass-weighted force constant matrix:
 Low frequencies ---   -3.0635   -0.4591   -0.1087    0.3202    1.6401    4.6849
 Low frequencies ---   12.6277   17.8353   40.5638

                      1                      2                      3
                      A                      A                      A
 Frequencies --     12.5171                17.8321                40.5473
 Red. masses --      5.8960                 3.9929                 2.9874
 Frc consts  --      0.0005                 0.0007                 0.0029
 IR Inten    --      3.8317                 0.8221                 0.4625

                      4                      5                      6
                      A                      A                      A
 Frequencies --     78.7532                84.2199                87.7851
 Red. masses --      2.1131                 1.2172                 3.9949
 Frc consts  --      0.0077                 0.0051                 0.0181
 IR Inten    --      0.2940                 0.2558                 0.7725

                      7                      8                      9
                      A                      A                      A
 Frequencies --     96.1632                99.6480               161.0897
 Red. masses --      1.8445                 1.8386                 4.8377
 Frc consts  --      0.0100                 0.0108                 0.0740
 IR Inten    --      1.4965                 1.1223                 1.3488

                     10                     11                     12
                      A                      A                      A
 Frequencies --    200.6910               216.6878               236.1513
 Red. masses --      4.5331                 7.3293                 2.6620
 Frc consts  --      0.1076                 0.2028                 0.0875
 IR Inten    --      5.2536                 2.0135                 0.2904

                     13                     14                     15
                      A                      A                      A
 Frequencies --    287.6872               307.0060               357.1375
 Red. masses --      3.8692                 6.5124                 4.1602
 Frc consts  --      0.1887                 0.3616                 0.3126
 IR Inten    --      6.7956                19.3542                 6.4736

                     16                     17                     18
                      A                      A                      A
 Frequencies --    374.0316               381.8655               404.2819
 Red. masses --      3.7613                 4.2716                 2.7427
 Frc consts  --      0.3100                 0.3670                 0.2641
 IR Inten    --      2.3240                 5.0887                 1.3163

                     19                     20                     21
                      A                      A                      A
 Frequencies --    424.9333               459.9542               475.1341
 Red. masses --      3.1436                 5.4817                 2.1610
 Frc consts  --      0.3344                 0.6833                 0.2874
 IR Inten    --      2.3800                 0.1097                12.3477

                     22                     23                     24
                      A                      A                      A
 Frequencies --    521.8147               535.3708               547.4287
 Red. masses --      3.9021                 4.2410                 3.1803
 Frc consts  --      0.6260                 0.7162                 0.5615
 IR Inten    --      1.0632                18.9876                 3.5636

                     25                     26                     27
                      A                      A                      A
 Frequencies --    585.9182               631.8835               664.7842
 Red. masses --      4.1161                 5.7946                 4.1940
 Frc consts  --      0.8325                 1.3632                 1.0920
 IR Inten    --     19.5517                 6.9476                20.9289

                     28                     29                     30
                      A                      A                      A
 Frequencies --    740.9153               759.0349               790.7885
 Red. masses --      6.9408                 4.2920                 3.2060
 Frc consts  --      2.2449                 1.4569                 1.1812
 IR Inten    --     35.5250                40.0757                41.2524

                     31                     32                     33
                      A                      A                      A
 Frequencies --    807.9811               862.1053               873.2622
 Red. masses --      1.4976                 1.5798                 1.6134
 Frc consts  --      0.5760                 0.6918                 0.7249
 IR Inten    --     60.0641                61.2256                16.3674

                     34                     35                     36
                      A                      A                      A
 Frequencies --    903.3027               917.1322               936.8433
 Red. masses --      1.5042                 1.8223                 2.3579
 Frc consts  --      0.7231                 0.9031                 1.2193
 IR Inten    --      9.9455                45.0008                87.6560

                     37                     38                     39
                      A                      A                      A
 Frequencies --    947.4708               957.4027               964.3231
 Red. masses --      1.8074                 1.8376                 1.5348
 Frc consts  --      0.9560                 0.9924                 0.8409
 IR Inten    --     41.3071                 5.9122                 1.8401

                     40                     41                     42
                      A                      A                      A
 Frequencies --    977.5712               990.2629              1012.7925
 Red. masses --      1.5501                 1.6903                 1.6158
 Frc consts  --      0.8728                 0.9766                 0.9765
 IR Inten    --     20.2006                 5.3539                85.0901

                     43                     44                     45
                      A                      A                      A
 Frequencies --   1049.2162              1055.7783              1086.1887
 Red. masses --      2.5294                 1.7692                 2.6392
 Frc consts  --      1.6406                 1.1619                 1.8346
 IR Inten    --     21.6626               150.1941                71.9376

                     46                     47                     48
                      A                      A                      A
 Frequencies --   1102.8683              1125.6962              1128.4266
 Red. masses --      2.6784                 1.5924                 1.3357
 Frc consts  --      1.9194                 1.1889                 1.0021
 IR Inten    --     58.8138                27.1574                19.3412

                     49                     50                     51
                      A                      A                      A
 Frequencies --   1149.7990              1166.9510              1168.7868
 Red. masses --      1.4503                 1.3314                 1.3267
 Frc consts  --      1.1297                 1.0682                 1.0678
 IR Inten    --     25.6925                89.3685                 5.6168

                     52                     53                     54
                      A                      A                      A
 Frequencies --   1213.0784              1216.7405              1217.3322
 Red. masses --      1.2407                 1.1084                 1.2430
 Frc consts  --      1.0757                 0.9668                 1.0853
 IR Inten    --     74.9355                83.5136                34.8460

                     55                     56                     57
                      A                      A                      A
 Frequencies --   1224.6136              1227.5969              1236.2526
 Red. masses --      1.0637                 1.0550                 1.4417
 Frc consts  --      0.9398                 0.9367                 1.2982
 IR Inten    --      7.8615               107.6749                22.6825

                     58                     59                     60
                      A                      A                      A
 Frequencies --   1245.0448              1258.2882              1260.1051
 Red. masses --      1.6389                 1.5534                 1.3907
 Frc consts  --      1.4968                 1.4491                 1.3011
 IR Inten    --     52.4149                 8.4105                12.1740

                     61                     62                     63
                      A                      A                      A
 Frequencies --   1280.1864              1288.5673              1297.9517
 Red. masses --      1.7744                 1.2129                 2.6771
 Frc consts  --      1.7133                 1.1866                 2.6572
 IR Inten    --    105.0328                 5.6595               167.5283

                     64                     65                     66
                      A                      A                      A
 Frequencies --   1313.5305              1325.3120              1334.8972
 Red. masses --      1.2217                 1.2982                 2.5779
 Frc consts  --      1.2419                 1.3434                 2.7065
 IR Inten    --    184.7103               119.1392                 9.6402

                     67                     68                     69
                      A                      A                      A
 Frequencies --   1363.9497              1367.3077              1476.3475
 Red. masses --      2.8023                 3.0479                 4.8139
 Frc consts  --      3.0716                 3.3572                 6.1819
 IR Inten    --     64.5973                99.4481                29.1861

                     70                     71                     72
                      A                      A                      A
 Frequencies --   1520.5868              1627.4364              1632.8421
 Red. masses --      5.0270                11.0778                11.1758
 Frc consts  --      6.8482                17.2867                17.5557
 IR Inten    --     14.3320               119.7138               114.7744

                     73                     74                     75
                      A                      A                      A
 Frequencies --   1734.0839              1758.9483              1799.6464
 Red. masses --     12.8132                10.7763                 9.7352
 Frc consts  --     22.7011                19.6439                18.5767
 IR Inten    --    704.7629                84.5456               152.9105

                     76                     77                     78
                      A                      A                      A
 Frequencies --   2648.9325              2661.1936              2677.6206
 Red. masses --      1.0762                 1.0687                 1.0853
 Frc consts  --      4.4493                 4.4592                 4.5844
 IR Inten    --     41.1692               168.6150               104.0836

                     79                     80                     81
                      A                      A                      A
 Frequencies --   2681.9862              2684.0339              2687.4691
 Red. masses --      1.0847                 1.0853                 1.0870
 Frc consts  --      4.5970                 4.6067                 4.6254
 IR Inten    --     88.9370               115.7594               113.6694

                     82                     83                     84
                      A                      A                      A
 Frequencies --   2725.5446              2727.9671              2728.8626
 Red. masses --      1.0736                 1.0719                 1.0501
 Frc consts  --      4.6991                 4.7000                 4.6074
 IR Inten    --    287.9746               177.4136                56.0647

                     85                     86                     87
                      A                      A                      A
 Frequencies --   2731.4610              2738.7962              2750.1370
 Red. masses --      1.0707                 1.0720                 1.0714
 Frc consts  --      4.7066                 4.7376                 4.7744
 IR Inten    --     86.1543               323.5725               155.4350

                     88                     89                     90
                      A                      A                      A
 Frequencies --   2750.8165              2782.9120              2787.9804
 Red. masses --      1.0786                 1.0311                 1.0320
 Frc consts  --      4.8088                 4.7048                 4.7263
 IR Inten    --    301.3966                48.9020                72.6485

 - Thermochemistry -
 -------------------
 Temperature   298.150 Kelvin.  Pressure   1.00000 Atm.
 Atom     1 has atomic number  6 and mass  12.00000

 Molecular mass:   246.08114 amu.
 Principal axes and moments of inertia in atomic units:
                           1         2         3
     Eigenvalues --  2557.403207165.354959315.56357
           X            0.99991  -0.01316   0.00362
           Y            0.01315   0.99990   0.00431
           Z           -0.00368  -0.00426   0.99998
 This molecule is an asymmetric top.
 Rotational symmetry number  1.
 Warning -- assumption of classical behavior for rotation
           may cause significant error
 Rotational temperatures (Kelvin)      0.03387     0.01209     0.00930
 Rotational constants (GHZ):           0.70569     0.25187     0.19373
 Zero-point vibrational energy     632540.9 (Joules/Mol)
                                  151.18090 (Kcal/Mol)
 Warning -- explicit consideration of  25 degrees of freedom as
           vibrations may cause significant error
 Vibrational temperatures:     18.01    25.66    58.34   113.31   121.17
          (Kelvin)            126.30   138.36   143.37   231.77   288.75
                              311.77   339.77   413.92   441.71   513.84
                              538.15   549.42   581.67   611.38   661.77
                              683.61   750.77   770.28   787.63   843.00
                              909.14   956.48  1066.01  1092.08  1137.77
                             1162.50  1240.38  1256.43  1299.65  1319.55
                             1347.91  1363.20  1377.49  1387.44  1406.51
                             1424.77  1457.18  1509.59  1519.03  1562.78
                             1586.78  1619.62  1623.55  1654.30  1678.98
                             1681.62  1745.35  1750.62  1751.47  1761.94
                             1766.24  1778.69  1791.34  1810.39  1813.01
                             1841.90  1853.96  1867.46  1889.88  1906.83
                             1920.62  1962.42  1967.25  2124.13  2187.78
                             2341.52  2349.29  2494.96  2530.73  2589.29
                             3811.22  3828.86  3852.49  3858.78  3861.72
                             3866.66  3921.45  3924.93  3926.22  3929.96
                             3940.51  3956.83  3957.81  4003.98  4011.28

 Zero-point correction=                           0.240922 (Hartree/Particle)
 Thermal correction to Energy=                    0.257736
 Thermal correction to Enthalpy=                  0.258680
 Thermal correction to Gibbs Free Energy=         0.193026
 Sum of electronic and zero-point Energies=              0.198761
 Sum of electronic and thermal Energies=                 0.215574
 Sum of electronic and thermal Enthalpies=               0.216519
 Sum of electronic and thermal Free Energies=            0.150865

                     E (Thermal)             CV                S
                      KCal/Mol        Cal/Mol-Kelvin    Cal/Mol-Kelvin
 Total                  161.732             62.209            138.179
 Electronic               0.000              0.000              0.000
 Translational            0.889              2.981             42.402
 Rotational               0.889              2.981             33.501
 Vibrational            159.954             56.247             62.276
 Vibration     1          0.593              1.987              7.565
 Vibration     2          0.593              1.986              6.862
 Vibration     3          0.594              1.981              5.232
 Vibration     4          0.600              1.963              3.922
 Vibration     5          0.601              1.960              3.790
 Vibration     6          0.601              1.958              3.709
 Vibration     7          0.603              1.952              3.531
 Vibration     8          0.604              1.949              3.461
 Vibration     9          0.622              1.890              2.537
 Vibration    10          0.638              1.839              2.127
 Vibration    11          0.646              1.816              1.987
 Vibration    12          0.655              1.785              1.832
 Vibration    13          0.685              1.697              1.488
 Vibration    14          0.697              1.660              1.378
 Vibration    15          0.732              1.561              1.135
 Vibration    16          0.745              1.525              1.063
 Vibration    17          0.751              1.509              1.032
 Vibration    18          0.769              1.461              0.947
 Vibration    19          0.787              1.416              0.875
 Vibration    20          0.818              1.339              0.766
 Vibration    21          0.832              1.305              0.723
 Vibration    22          0.877              1.202              0.606
 Vibration    23          0.890              1.172              0.575
 Vibration    24          0.903              1.145              0.550
 Vibration    25          0.943              1.062              0.475

 Optimization completed.
    -- Stationary point found.
 Normal termination of Gaussian 09 at Thu Aug 20 14:17:50 2020.
