 Gaussian 09, Revision D.01,
 Gaussian 09:  ES64L-G09RevD.01 24-Apr-2013

 ----------------------------------------------------------------------
 # opt freq pm6 scrf=(cpcm,solvent=water) geom=connectivity empiricaldi
 spersion=gd3
 ----------------------------------------------------------------------

 -------------------
 Title Card Required
 -------------------
 Symbolic Z-matrix:
 Charge =  0 Multiplicity = 1

 SCF Done:  E(RPM6D3) = -0.291301839882E-01 A.U. after   21 cycles
 SCF Done:  E(RPM6D3) = -0.291571003668E-01 A.U. after   15 cycles
 SCF Done:  E(RPM6D3) = -0.291086989936E-01 A.U. after   16 cycles
 SCF Done:  E(RPM6D3) = -0.291687119843E-01 A.U. after   16 cycles
 SCF Done:  E(RPM6D3) = -0.291695684707E-01 A.U. after   11 cycles
 SCF Done:  E(RPM6D3) = -0.291696763517E-01 A.U. after   13 cycles
 SCF Done:  E(RPM6D3) = -0.291695664382E-01 A.U. after   12 cycles
 SCF Done:  E(RPM6D3) = -0.291694596150E-01 A.U. after   12 cycles
 SCF Done:  E(RPM6D3) = -0.291693909423E-01 A.U. after   12 cycles
 Optimization completed.
    -- Stationary point found.
 Normal termination of Gaussian 09 at Thu Aug 20 13:52:57 2020.

 -------------------------------------------------------------
 #N Geom=AllCheck Guess=TCheck SCRF=Check GenChk RPM6/ZDO Freq
 -------------------------------------------------------------

 Structure from the checkpoint file:  "sm_claisen_PM6_toluene_water.chk"
 -------------------
 Title Card Required
 -------------------
 Charge =  0 Multiplicity = 1

                         Standard orientation:
 ---------------------------------------------------------------------
 Center     Atomic      Atomic             Coordinates (Angstroms)
 Number     Number       Type             X           Y           Z
 ---------------------------------------------------------------------
      1          6           0       -2.817830    2.502214    0.124197
      2          6           0       -3.004004    1.140288    0.075194
      3          6           0       -1.883815    0.260793   -0.022726
      4          6           0       -0.579842    0.819412   -0.069053
      5          6           0       -0.414716    2.234611   -0.014916
      6          6           0       -1.510013    3.058882    0.079412
      7          1           0       -3.673275    3.176561    0.198489
      8          1           0       -4.012097    0.726939    0.111221
      9          1           0        0.600700    2.637848   -0.050375
     10          1           0       -1.394485    4.141993    0.121091
     11          6           0        0.556526   -0.073914   -0.169717
     12          6           0       -2.002218   -1.165277   -0.076653
     13          6           0        0.394202   -1.444460   -0.220422
     14          1           0        1.245880   -2.119075   -0.294792
     15          6           0       -0.910171   -1.993194   -0.172930
     16          1           0       -1.023778   -3.079280   -0.213615
     17          8           0        1.732882    0.606943   -0.203671
     18         17           0       -3.576679   -1.875334   -0.014485
     19          6           0        3.059306   -0.070757   -0.285176
     20          6           0        3.275860   -0.974029    0.905889
     21          1           0        3.949942   -1.812092    0.711599
     22          6           0        3.150033   -0.802712   -1.615833
     23          1           0        4.192405   -1.020800   -1.884896
     24          1           0        2.614334   -1.761553   -1.612701
     25          1           0        2.728038   -0.203395   -2.433671
     26          6           0        3.966957    1.156361   -0.219514
     27          1           0        3.727956    1.784152    0.649776
     28          1           0        5.021527    0.865120   -0.135771
     29          1           0        3.866119    1.788742   -1.110292
     30          6           0        2.737870   -0.770690    2.105034
     31          1           0        2.918792   -1.417546    2.953631
     32          1           0        2.069559    0.052351    2.329197
 ---------------------------------------------------------------------

 SCF Done:  E(RPM6D3) = -0.291693909472E-01 A.U. after    2 cycles

 The electronic state is 1-A.
 Alpha  occ. eigenvalues --   -1.13452  -1.12278  -1.08040  -1.06433  -1.00515
 Alpha  occ. eigenvalues --   -0.97646  -0.96405  -0.95928  -0.92619  -0.89672
 Alpha  occ. eigenvalues --   -0.82499  -0.81652  -0.79414  -0.77778  -0.71913
 Alpha  occ. eigenvalues --   -0.66301  -0.65553  -0.63510  -0.61267  -0.60348
 Alpha  occ. eigenvalues --   -0.58169  -0.56172  -0.55203  -0.54724  -0.54412
 Alpha  occ. eigenvalues --   -0.53712  -0.52497  -0.51145  -0.50505  -0.49460
 Alpha  occ. eigenvalues --   -0.49360  -0.48752  -0.47561  -0.46950  -0.46135
 Alpha  occ. eigenvalues --   -0.44771  -0.44660  -0.43255  -0.41234  -0.40966
 Alpha  occ. eigenvalues --   -0.39294  -0.38088  -0.36349  -0.31959
 Alpha virt. eigenvalues --   -0.02681  -0.01791   0.01911   0.02188   0.02762
 Alpha virt. eigenvalues --    0.04877   0.05298   0.09065   0.11800   0.12650
 Alpha virt. eigenvalues --    0.12952   0.13228   0.13649   0.14539   0.14966

 Mulliken charges:
               1
     1  C   -0.083908
     2  C   -0.217297
     3  C    0.093650
     4  C   -0.148822
     5  C   -0.083323
     6  C   -0.195879
     7  H    0.156073
     8  H    0.171348
     9  H    0.165916
    10  H    0.164522
    11  C    0.366818
    12  C   -0.120842
    13  C   -0.399489
    14  H    0.192947
    15  C   -0.031385
    16  H    0.164483
    17  O   -0.461167
    18  Cl  -0.105126
    19  C    0.453682
    20  C   -0.247813
    21  H    0.166814
    22  C   -0.585138
    23  H    0.185435
    24  H    0.180037
    25  H    0.184413
    26  C   -0.547707
    27  H    0.180817
    28  H    0.181486
    29  H    0.178575
    30  C   -0.270864
    31  H    0.154832
    32  H    0.156912
 Sum of Mulliken charges =   0.00000

 Dipole moment (field-independent basis, Debye):
    X=              4.7541    Y=              0.6374    Z=             -0.2338  Tot=              4.8023
 N-N= 6.448707282617D+02 E-N=-1.176897738593D+03  KE=-5.655710675879D+01
  Exact polarizability: 264.043  -3.296 236.805 -19.252   6.817  81.594
 Approx polarizability: 150.628  -2.946 143.375 -12.431   5.247  45.755
 PrsmSu:  requested number of processors reduced to:   1 ShMem   1 Linda.
 D2PCM: C-PCM CHGder 2nd derivatives, FixD1E=F FixD2E=F DoIter=F DoCFld=F I1PDM=0
 Calling FoFJK, ICntrl=    100127 FMM=F ISym2X=0 I1Cent= 0 IOpClX= 0 NMat=1 NMatS=1 NMatT=0.
 CoulSu:  requested number of processors reduced to:   2 ShMem   1 Linda.
 Full mass-weighted force constant matrix:
 Low frequencies ---   -3.5281   -0.2874   -0.0551    0.0874    2.4063    7.8701
 Low frequencies ---   27.1681   40.0624   71.9608

                      1                      2                      3
                      A                      A                      A
 Frequencies --     27.1426                39.9710                71.9564
 Red. masses --      4.0538                 4.4785                 2.0463
 Frc consts  --      0.0018                 0.0042                 0.0062
 IR Inten    --      1.0357                 0.0342                 0.5946

                      4                      5                      6
                      A                      A                      A
 Frequencies --     90.7573                96.5206               104.2757
 Red. masses --      1.1170                 3.6139                 4.0254
 Frc consts  --      0.0054                 0.0198                 0.0258
 IR Inten    --      0.1104                 0.7269                 1.1553

                      7                      8                      9
                      A                      A                      A
 Frequencies --    111.0797               151.1635               168.4945
 Red. masses --      3.5353                 1.1131                 4.1271
 Frc consts  --      0.0257                 0.0150                 0.0690
 IR Inten    --      2.6333                 0.1107                 3.4646

                     10                     11                     12
                      A                      A                      A
 Frequencies --    183.9878               212.6492               255.3766
 Red. masses --      3.9907                 6.5811                 3.7565
 Frc consts  --      0.0796                 0.1753                 0.1443
 IR Inten    --      0.7587                 1.4383                 1.3543

                     13                     14                     15
                      A                      A                      A
 Frequencies --    277.5880               301.2170               310.6666
 Red. masses --      3.5738                 2.4244                 4.1246
 Frc consts  --      0.1622                 0.1296                 0.2345
 IR Inten    --      2.9287                 1.0667                 3.2110

                     16                     17                     18
                      A                      A                      A
 Frequencies --    360.5102               374.3759               408.9554
 Red. masses --      2.8952                 2.8057                 3.6588
 Frc consts  --      0.2217                 0.2317                 0.3605
 IR Inten    --      0.5779                 7.6621                 3.4880

                     19                     20                     21
                      A                      A                      A
 Frequencies --    418.9735               429.2557               465.2650
 Red. masses --      2.8358                 3.5277                 5.0803
 Frc consts  --      0.2933                 0.3830                 0.6480
 IR Inten    --      2.3147                 1.9410                 2.9566

                     22                     23                     24
                      A                      A                      A
 Frequencies --    515.0709               535.3262               537.3050
 Red. masses --      5.0812                 3.3667                 3.5381
 Frc consts  --      0.7942                 0.5685                 0.6018
 IR Inten    --      2.3355                 2.6453                 4.1069

                     25                     26                     27
                      A                      A                      A
 Frequencies --    583.5043               595.1613               645.7821
 Red. masses --      3.5977                 3.5917                 2.2631
 Frc consts  --      0.7217                 0.7496                 0.5561
 IR Inten    --      4.3386                10.9380                 2.7503

                     28                     29                     30
                      A                      A                      A
 Frequencies --    671.8070               743.8784               755.2248
 Red. masses --      4.1098                 3.7809                 6.8250
 Frc consts  --      1.0929                 1.2327                 2.2935
 IR Inten    --     46.9194                12.4803                 4.4381

                     31                     32                     33
                      A                      A                      A
 Frequencies --    793.9286               802.4754               837.0086
 Red. masses --      5.0863                 1.2884                 1.4094
 Frc consts  --      1.8889                 0.4888                 0.5818
 IR Inten    --      1.2442               106.3866               141.0013

                     34                     35                     36
                      A                      A                      A
 Frequencies --    845.9988               868.9103               897.7439
 Red. masses --      3.0780                 2.6382                 1.5103
 Frc consts  --      1.2980                 1.1736                 0.7171
 IR Inten    --      4.8636                75.3175                 4.5923

                     37                     38                     39
                      A                      A                      A
 Frequencies --    943.7157               945.3584               949.8402
 Red. masses --      1.2856                 1.5107                 1.5197
 Frc consts  --      0.6746                 0.7955                 0.8078
 IR Inten    --      5.3644                 2.8613                 9.0584

                     40                     41                     42
                      A                      A                      A
 Frequencies --    959.5320               959.9617               963.3496
 Red. masses --      1.5753                 3.7779                 1.6054
 Frc consts  --      0.8545                 2.0512                 0.8778
 IR Inten    --     25.1634               220.4269                21.0219

                     43                     44                     45
                      A                      A                      A
 Frequencies --    971.5082               985.6037              1018.8433
 Red. masses --      1.3179                 1.6739                 1.4670
 Frc consts  --      0.7329                 0.9580                 0.8972
 IR Inten    --      7.2315                 2.4946               164.1708

                     46                     47                     48
                      A                      A                      A
 Frequencies --   1048.3338              1101.6425              1108.1860
 Red. masses --      1.3482                 4.6008                 2.1786
 Frc consts  --      0.8730                 3.2897                 1.5763
 IR Inten    --     67.5680               240.7990               220.1323

                     49                     50                     51
                      A                      A                      A
 Frequencies --   1135.6040              1150.6643              1178.1845
 Red. masses --      2.4620                 1.5264                 1.2766
 Frc consts  --      1.8707                 1.1908                 1.0441
 IR Inten    --    794.9563                 7.6756                 4.5588

                     52                     53                     54
                      A                      A                      A
 Frequencies --   1205.0845              1210.1159              1212.5328
 Red. masses --      1.3084                 1.1253                 1.3806
 Frc consts  --      1.1195                 0.9709                 1.1959
 IR Inten    --     39.6849                88.3834                42.6087

                     55                     56                     57
                      A                      A                      A
 Frequencies --   1213.3196              1223.6284              1227.3865
 Red. masses --      1.1036                 1.0603                 1.0663
 Frc consts  --      0.9572                 0.9354                 0.9464
 IR Inten    --    130.0215                11.5460               105.6625

                     58                     59                     60
                      A                      A                      A
 Frequencies --   1240.0011              1266.8149              1277.5821
 Red. masses --      1.8432                 1.8128                 2.4750
 Frc consts  --      1.6698                 1.7141                 2.3802
 IR Inten    --    137.0805                67.1085                66.7896

                     61                     62                     63
                      A                      A                      A
 Frequencies --   1287.0396              1288.4748              1313.1040
 Red. masses --      1.5413                 1.2923                 1.1960
 Frc consts  --      1.5043                 1.2641                 1.2150
 IR Inten    --    153.3946                42.3104                88.9723

                     64                     65                     66
                      A                      A                      A
 Frequencies --   1313.3126              1332.2287              1360.2447
 Red. masses --      1.2726                 1.3819                 3.0948
 Frc consts  --      1.2933                 1.4451                 3.3738
 IR Inten    --     49.3325                47.6134               138.8571

                     67                     68                     69
                      A                      A                      A
 Frequencies --   1384.8574              1417.8834              1458.2295
 Red. masses --      5.0414                 2.9181                 6.2728
 Frc consts  --      5.6965                 3.4565                 7.8590
 IR Inten    --    155.0961               260.1819                85.6990

                     70                     71                     72
                      A                      A                      A
 Frequencies --   1487.2502              1544.5344              1618.2147
 Red. masses --      5.5651                 8.4004                11.1518
 Frc consts  --      7.2526                11.8072                17.2055
 IR Inten    --    160.6919                59.5797               181.7466

                     73                     74                     75
                      A                      A                      A
 Frequencies --   1668.9872              1674.8803              1790.6721
 Red. masses --     10.7379                10.0461                 8.8433
 Frc consts  --     17.6227                16.6040                16.7069
 IR Inten    --    240.9466                20.6217                 8.1182

                     76                     77                     78
                      A                      A                      A
 Frequencies --   2675.5035              2683.3555              2684.5642
 Red. masses --      1.0870                 1.0866                 1.0871
 Frc consts  --      4.5846                 4.6096                 4.6162
 IR Inten    --    113.1267                58.3317               163.1526

                     79                     80                     81
                      A                      A                      A
 Frequencies --   2686.8243              2711.0145              2730.4013
 Red. masses --      1.0875                 1.0860                 1.0717
 Frc consts  --      4.6254                 4.7026                 4.7074
 IR Inten    --    148.2208                36.9353               188.0736

                     82                     83                     84
                      A                      A                      A
 Frequencies --   2733.9959              2736.3428              2741.1313
 Red. masses --      1.0708                 1.0701                 1.0812
 Frc consts  --      4.7158                 4.7209                 4.7865
 IR Inten    --     85.1252                56.2162               395.3709

                     85                     86                     87
                      A                      A                      A
 Frequencies --   2743.2858              2744.5568              2754.7276
 Red. masses --      1.0752                 1.0720                 1.0789
 Frc consts  --      4.7674                 4.7576                 4.8239
 IR Inten    --    379.7368               303.8867               177.1521

                     88                     89                     90
                      A                      A                      A
 Frequencies --   2775.4118              2784.8115              2789.7306
 Red. masses --      1.0548                 1.0307                 1.0319
 Frc consts  --      4.7871                 4.7097                 4.7318
 IR Inten    --    162.2552                60.4415                67.2929

 - Thermochemistry -
 -------------------
 Temperature   298.150 Kelvin.  Pressure   1.00000 Atm.
 Atom     1 has atomic number  6 and mass  12.00000

 Molecular mass:   246.08114 amu.
 Principal axes and moments of inertia in atomic units:
                           1         2         3
     Eigenvalues --  2586.337846258.736177937.12615
           X            0.99965  -0.02597  -0.00449
           Y            0.02598   0.99966   0.00296
           Z            0.00441  -0.00307   0.99999
 This molecule is an asymmetric top.
 Rotational symmetry number  1.
 Warning -- assumption of classical behavior for rotation
           may cause significant error
 Rotational temperatures (Kelvin)      0.03349     0.01384     0.01091
 Rotational constants (GHZ):           0.69780     0.28836     0.22738
 Zero-point vibrational energy     627451.3 (Joules/Mol)
                                  149.96447 (Kcal/Mol)
 Warning -- explicit consideration of  26 degrees of freedom as
           vibrations may cause significant error
 Vibrational temperatures:     39.05    57.51   103.53   130.58   138.87
          (Kelvin)            150.03   159.82   217.49   242.43   264.72
                              305.95   367.43   399.39   433.38   446.98
                              518.69   538.64   588.39   602.81   617.60
                              669.41   741.07   770.21   773.06   839.53
                              856.30   929.14   966.58  1070.27  1086.60
                             1142.28  1154.58  1204.27  1217.20  1250.17
                             1291.65  1357.79  1360.16  1366.61  1380.55
                             1381.17  1386.04  1397.78  1418.06  1465.89
                             1508.32  1585.02  1594.43  1633.88  1655.55
                             1695.14  1733.85  1741.08  1744.56  1745.69
                             1760.53  1765.93  1784.08  1822.66  1838.15
                             1851.76  1853.83  1889.26  1889.56  1916.78
                             1957.09  1992.50  2040.02  2098.06  2139.82
                             2222.24  2328.25  2401.30  2409.78  2576.37
                             3849.45  3860.75  3862.48  3865.74  3900.54
                             3928.43  3933.61  3936.98  3943.87  3946.97
                             3948.80  3963.43  3993.19  4006.72  4013.80

 Zero-point correction=                           0.238984 (Hartree/Particle)
 Thermal correction to Energy=                    0.255778
 Thermal correction to Enthalpy=                  0.256722
 Thermal correction to Gibbs Free Energy=         0.193654
 Sum of electronic and zero-point Energies=              0.209814
 Sum of electronic and thermal Energies=                 0.226609
 Sum of electronic and thermal Enthalpies=               0.227553
 Sum of electronic and thermal Free Energies=            0.164485

                     E (Thermal)             CV                S
                      KCal/Mol        Cal/Mol-Kelvin    Cal/Mol-Kelvin
 Total                  160.503             63.585            132.738
 Electronic               0.000              0.000              0.000
 Translational            0.889              2.981             42.402
 Rotational               0.889              2.981             33.218
 Vibrational            158.726             57.624             57.118
 Vibration     1          0.593              1.984              6.028
 Vibration     2          0.594              1.981              5.261
 Vibration     3          0.598              1.967              4.099
 Vibration     4          0.602              1.956              3.644
 Vibration     5          0.603              1.952              3.523
 Vibration     6          0.605              1.946              3.373
 Vibration     7          0.607              1.940              3.250
 Vibration     8          0.619              1.901              2.658
 Vibration     9          0.625              1.881              2.452
 Vibration    10          0.631              1.862              2.288
 Vibration    11          0.644              1.822              2.021
 Vibration    12          0.666              1.754              1.693
 Vibration    13          0.679              1.715              1.548
 Vibration    14          0.693              1.671              1.410
 Vibration    15          0.700              1.653              1.359
 Vibration    16          0.735              1.554              1.120
 Vibration    17          0.745              1.525              1.062
 Vibration    18          0.773              1.451              0.930
 Vibration    19          0.782              1.429              0.895
 Vibration    20          0.791              1.407              0.861
 Vibration    21          0.823              1.327              0.751
 Vibration    22          0.870              1.217              0.621
 Vibration    23          0.890              1.172              0.575
 Vibration    24          0.892              1.168              0.571
 Vibration    25          0.940              1.067              0.479
 Vibration    26          0.953              1.042              0.458

 Normal termination of Gaussian 09 at Thu Aug 20 13:53:08 2020.
