 Gaussian 09, Revision D.01,
 Gaussian 09:  ES64L-G09RevD.01 24-Apr-2013

 ----------------------------------------------------------------------
 # opt=(calcfc,ts,noeigentest) pm6 scrf=(cpcm,solvent=water) geom=conne
 ctivity empiricaldispersion=gd3
 ----------------------------------------------------------------------

 -------------------
 Title Card Required
 -------------------
 Symbolic Z-matrix:
 Charge =  0 Multiplicity = 1

 SCF Done:  E(RPM6D3) =  0.149178895613E-01 A.U. after   22 cycles

  Exact polarizability:   0.000   0.000   0.000   0.000   0.000   0.000
 Approx polarizability: 170.370  -1.229 150.422 -16.559   0.319  50.703

 SCF Done:  E(RPM6D3) =  0.147131486140E-01 A.U. after   17 cycles
 SCF Done:  E(RPM6D3) =  0.147095506802E-01 A.U. after   14 cycles
 SCF Done:  E(RPM6D3) =  0.147095559764E-01 A.U. after   13 cycles
 SCF Done:  E(RPM6D3) =  0.147095442721E-01 A.U. after   10 cycles
 SCF Done:  E(RPM6D3) =  0.147095613639E-01 A.U. after   10 cycles
 Optimization completed.
    -- Stationary point found.

                         Standard orientation:
 ---------------------------------------------------------------------
 Center     Atomic      Atomic             Coordinates (Angstroms)
 Number     Number       Type             X           Y           Z
 ---------------------------------------------------------------------
      1          6           0       -2.412871    2.644484    0.284176
      2          6           0       -2.684755    1.286754    0.260738
      3          6           0       -1.673984    0.363203   -0.103049
      4          6           0       -0.388309    0.847051   -0.438860
      5          6           0       -0.133420    2.238167   -0.414866
      6          6           0       -1.130614    3.126893   -0.055417
      7          1           0       -3.192463    3.354947    0.565800
      8          1           0       -3.682599    0.935321    0.523473
      9          1           0        0.866999    2.589341   -0.681314
     10          1           0       -0.936486    4.199115   -0.031172
     11          6           0        0.676394   -0.092689   -0.827210
     12          6           0       -1.891739   -1.067829   -0.156147
     13          6           0        0.406881   -1.493811   -0.825979
     14          1           0        1.028845   -2.145626   -1.446789
     15          6           0       -0.929611   -1.949267   -0.533786
     16          1           0       -1.126198   -3.022205   -0.602826
     17          8           0        1.863009    0.343698   -1.035294
     18         17           0       -3.456275   -1.670006    0.272541
     19          6           0        3.067336   -0.099035    0.378881
     20          6           0        2.751818   -1.477501    0.441603
     21          1           0        3.430457   -2.172066   -0.057276
     22          6           0        4.312920    0.333747   -0.328410
     23          1           0        4.707593   -0.424825   -1.017432
     24          1           0        4.130783    1.238783   -0.931353
     25          1           0        5.118147    0.581992    0.379686
     26          6           0        2.540754    0.866790    1.395405
     27          1           0        1.509418    0.654001    1.710720
     28          1           0        3.161333    0.842673    2.305826
     29          1           0        2.548562    1.904823    1.031549
     30          6           0        1.507552   -1.944046    0.842831
     31          1           0        1.301225   -3.013444    0.851875
     32          1           0        0.876879   -1.379791    1.528943
 ---------------------------------------------------------------------

 The electronic state is 1-A.
 Alpha  occ. eigenvalues --   -1.13407  -1.11032  -1.07700  -1.06539  -1.00352
 Alpha  occ. eigenvalues --   -0.98041  -0.96307  -0.94695  -0.91333  -0.89313
 Alpha  occ. eigenvalues --   -0.82181  -0.80987  -0.80093  -0.75674  -0.68912
 Alpha  occ. eigenvalues --   -0.66000  -0.65167  -0.62834  -0.60261  -0.59876
 Alpha  occ. eigenvalues --   -0.57250  -0.56890  -0.56323  -0.54392  -0.54161
 Alpha  occ. eigenvalues --   -0.53007  -0.52045  -0.50617  -0.50175  -0.49462
 Alpha  occ. eigenvalues --   -0.48889  -0.48467  -0.47269  -0.46589  -0.46461
 Alpha  occ. eigenvalues --   -0.45673  -0.44658  -0.42081  -0.41318  -0.39429
 Alpha  occ. eigenvalues --   -0.38541  -0.37528  -0.34478  -0.31546
 Alpha virt. eigenvalues --   -0.03190  -0.02340   0.00335   0.02184   0.02620
 Alpha virt. eigenvalues --    0.03795   0.07260   0.09497   0.12169   0.12806
 Alpha virt. eigenvalues --    0.13760   0.13919   0.14325   0.14992   0.15377

 Mulliken charges:
               1
     1  C   -0.083574
     2  C   -0.217419
     3  C    0.087175
     4  C   -0.187625
     5  C   -0.071739
     6  C   -0.200041
     7  H    0.155240
     8  H    0.171068
     9  H    0.164202
    10  H    0.164123
    11  C    0.449465
    12  C   -0.092671
    13  C   -0.391169
    14  H    0.192160
    15  C   -0.064493
    16  H    0.167348
    17  O   -0.611520
    18  Cl  -0.107723
    19  C    0.525095
    20  C   -0.467665
    21  H    0.180883
    22  C   -0.576434
    23  H    0.182011
    24  H    0.195932
    25  H    0.190137
    26  C   -0.580724
    27  H    0.185622
    28  H    0.190904
    29  H    0.190567
    30  C   -0.022851
    31  H    0.143966
    32  H    0.139749
 Sum of Mulliken charges =   0.00000

 Dipole moment (field-independent basis, Debye):
    X=              3.1039    Y=              0.5108    Z=              2.8202  Tot=              4.2247
 N-N= 6.574606018750D+02 E-N=-1.202188451209D+03  KE=-5.670392175172D+01
 1\1\GINC-D12S0B3\FTS\RPM6\ZDO\C15H15Cl1O1\CHMKSH\20-Aug-2020\0\\# opt=
 (calcfc,ts,noeigentest) pm6 scrf=(cpcm,solvent=water) geom=connectivit
 y empiricaldispersion=gd3\\Title Card Required\\0,1\C,-2.4120969383,2.
 6427145372,0.2898975995\C,-2.6834554584,1.2848138661,0.2706451301\C,-1
 .6738616542,0.3609183191,-0.0955267817\C,-0.3898922542,0.8446038554,-0
 .4380310149\C,-0.135541455,2.2358846718,-0.4182216571\C,-1.1315619449,
 3.1249511097,-0.0563708645\H,-3.1907757919,3.3534454899,0.5733644918\H
 ,-3.6799774183,0.9335113509,0.5385210795\H,0.8635393951,2.58692097,-0.
 6898213996\H,-0.9378238531,4.197312191,-0.0353401902\C,0.6735335324,-0

 Normal termination of Gaussian 09 at Thu Aug 20 13:31:30 2020.
