 Gaussian 09, Revision D.01,
 Gaussian 09:  ES64L-G09RevD.01 24-Apr-2013

 ----------------------------------------------------------------------
 # opt freq pm6 scrf=(cpcm,solvent=toluene) geom=connectivity empirical
 dispersion=gd3
 ----------------------------------------------------------------------

 -------------------
 Title Card Required
 -------------------
 Symbolic Z-matrix:
 Charge =  0 Multiplicity = 1

 SCF Done:  E(RPM6D3) = -0.140981793037     A.U. after   16 cycles
 SCF Done:  E(RPM6D3) = -0.166529950908     A.U. after   14 cycles
 SCF Done:  E(RPM6D3) = -0.173353988991     A.U. after   14 cycles
 SCF Done:  E(RPM6D3) = -0.173541442059     A.U. after   14 cycles
 SCF Done:  E(RPM6D3) = -0.175001812555     A.U. after   14 cycles
 SCF Done:  E(RPM6D3) = -0.177150353539     A.U. after   14 cycles
 SCF Done:  E(RPM6D3) = -0.180581965249     A.U. after   14 cycles
 SCF Done:  E(RPM6D3) = -0.182599012110     A.U. after   13 cycles
 SCF Done:  E(RPM6D3) = -0.183475200890     A.U. after   13 cycles
 SCF Done:  E(RPM6D3) = -0.183508182087     A.U. after   12 cycles
 SCF Done:  E(RPM6D3) = -0.183512327968     A.U. after   12 cycles
 SCF Done:  E(RPM6D3) = -0.183510183678     A.U. after   12 cycles
 SCF Done:  E(RPM6D3) = -0.183514208100     A.U. after   12 cycles
 SCF Done:  E(RPM6D3) = -0.183514377950     A.U. after   11 cycles
 SCF Done:  E(RPM6D3) = -0.183514365667     A.U. after   11 cycles
 SCF Done:  E(RPM6D3) = -0.183514099536     A.U. after   11 cycles
 SCF Done:  E(RPM6D3) = -0.183513909035     A.U. after   11 cycles
 Optimization completed.
    -- Stationary point found.
 Normal termination of Gaussian 09 at Sun Sep  6 18:32:57 2020.

 -------------------------------------------------------------
 #N Geom=AllCheck Guess=TCheck SCRF=Check GenChk RPM6/ZDO Freq
 -------------------------------------------------------------

 Structure from the checkpoint file:  "dmad_cycloaddition_PM6_toluene.chk"
 -------------------
 Title Card Required
 -------------------
 Charge =  0 Multiplicity = 1

                         Standard orientation:
 ---------------------------------------------------------------------
 Center     Atomic      Atomic             Coordinates (Angstroms)
 Number     Number       Type             X           Y           Z
 ---------------------------------------------------------------------
      1          7           0       -0.389329    0.229118    0.417565
      2          7           0        0.389344   -0.229043   -0.417653
      3          6           0       -1.789670    0.503817    0.058851
      4          6           0        1.789666   -0.503808   -0.058920
      5          8           0        2.242472   -1.610606    0.062345
      6          8           0       -2.242510    1.610596   -0.062448
      7          8           0        2.466567    0.675698   -0.060842
      8          8           0       -2.466549   -0.675704    0.060907
      9          6           0       -3.921945   -0.592689   -0.046240
     10          1           0       -4.204536   -1.653993   -0.050680
     11          1           0       -4.325790   -0.068424    0.825554
     12          1           0       -4.198149   -0.094983   -0.981292
     13          6           0        3.921955    0.592641    0.046382
     14          1           0        4.204567    1.653939    0.050924
     15          1           0        4.198093    0.094854    0.981410
     16          1           0        4.325838    0.068437   -0.825431
 ---------------------------------------------------------------------

 SCF Done:  E(RPM6D3) = -0.183513909036     A.U. after    2 cycles

 The electronic state is 1-A.
 Alpha  occ. eigenvalues --   -1.32662  -1.22255  -1.21447  -1.16642  -1.16246
 Alpha  occ. eigenvalues --   -1.04620  -0.97195  -0.92303  -0.83895  -0.76626
 Alpha  occ. eigenvalues --   -0.71424  -0.67324  -0.65614  -0.64718  -0.63295
 Alpha  occ. eigenvalues --   -0.61183  -0.57095  -0.56989  -0.56236  -0.54653
 Alpha  occ. eigenvalues --   -0.54272  -0.50916  -0.50708  -0.46018  -0.45729
 Alpha  occ. eigenvalues --   -0.44350  -0.44329  -0.38207
 Alpha virt. eigenvalues --   -0.06049  -0.02835  -0.01282   0.00097   0.02725
 Alpha virt. eigenvalues --    0.05304   0.08780   0.09151   0.10029   0.13825
 Alpha virt. eigenvalues --    0.13848   0.14100   0.17798   0.17800   0.17862

 Mulliken charges:
               1
     1  N   -0.122101
     2  N   -0.122106
     3  C    0.659123
     4  C    0.659124
     5  O   -0.463431
     6  O   -0.463436
     7  O   -0.389770
     8  O   -0.389771
     9  C   -0.176701
    10  H    0.174932
    11  H    0.158809
    12  H    0.159145
    13  C   -0.176703
    14  H    0.174932
    15  H    0.159145
    16  H    0.158809
 Sum of Mulliken charges =   0.00000

 Dipole moment (field-independent basis, Debye):
    X=              0.0001    Y=             -0.0001    Z=              0.0002  Tot=              0.0002
 N-N= 3.184575698126D+02 E-N=-5.641434984829D+02  KE=-3.222590143368D+01
  Exact polarizability: 130.519 -12.455  84.827   2.189  -1.230  28.018
 Approx polarizability:  69.321  -8.669  62.936  -0.508  -0.546  19.176
 D2PCM: C-PCM CHGder 2nd derivatives, FixD1E=F FixD2E=F DoIter=F DoCFld=F I1PDM=0
 Calling FoFJK, ICntrl=    100127 FMM=F ISym2X=0 I1Cent= 0 IOpClX= 0 NMat=1 NMatS=1 NMatT=0.
 Full mass-weighted force constant matrix:
 Low frequencies ---   -9.5718   -7.1053   -3.6506   -0.0203   -0.0130   -0.0073
 Low frequencies ---   29.6685   65.9389   69.0408
 Diagonal vibrational polarizability:
       67.9981141      40.9416607     254.5669240

                      1                      2                      3
                      A                      A                      A
 Frequencies --     29.6685                65.9389                69.0408
 Red. masses --      5.2425                 2.7281                 1.6561
 Frc consts  --      0.0027                 0.0070                 0.0047
 IR Inten    --      7.2703                 4.3872                 1.8352

                      4                      5                      6
                      A                      A                      A
 Frequencies --     73.4047                94.8041                96.9292
 Red. masses --      1.1095                 2.6773                 7.2971
 Frc consts  --      0.0035                 0.0142                 0.0404
 IR Inten    --      0.0000                 0.8821                 0.0000

                      7                      8                      9
                      A                      A                      A
 Frequencies --    130.3623               205.8726               222.9335
 Red. masses --      3.5171                 7.3448                 7.1991
 Frc consts  --      0.0352                 0.1834                 0.2108
 IR Inten    --      0.0000                24.4082                 0.0000

                     10                     11                     12
                      A                      A                      A
 Frequencies --    254.3663               297.5785               392.3774
 Red. masses --      4.7371                 4.7190                12.7311
 Frc consts  --      0.1806                 0.2462                 1.1548
 IR Inten    --     40.7337                 0.0000                 0.0000

                     13                     14                     15
                      A                      A                      A
 Frequencies --    498.5145               514.9132               579.8107
 Red. masses --      9.8304                 9.9620                 7.0185
 Frc consts  --      1.4394                 1.5562                 1.3902
 IR Inten    --     26.9993                 0.0000                92.7744

                     16                     17                     18
                      A                      A                      A
 Frequencies --    668.1969               746.3296               929.2027
 Red. masses --     12.4641                 6.8101                 4.6668
 Frc consts  --      3.2788                 2.2349                 2.3741
 IR Inten    --    121.8542                 0.0000                 0.0000

                     19                     20                     21
                      A                      A                      A
 Frequencies --    933.7829              1054.9460              1059.1808
 Red. masses --      3.5937                 1.7910                 1.2425
 Frc consts  --      1.8462                 1.1744                 0.8213
 IR Inten    --     91.4439                 0.0000                 9.2780

                     22                     23                     24
                      A                      A                      A
 Frequencies --   1067.6046              1084.1786              1107.1938
 Red. masses --      2.8498                12.2661                 1.8143
 Frc consts  --      1.9137                 8.4949                 1.3104
 IR Inten    --      0.0000               149.3256               235.1398

                     25                     26                     27
                      A                      A                      A
 Frequencies --   1108.2029              1183.9100              1199.2142
 Red. masses --      1.7737                 6.0725                 5.7997
 Frc consts  --      1.2834                 5.0149                 4.9142
 IR Inten    --      0.0000                 0.0000               973.9767

                     28                     29                     30
                      A                      A                      A
 Frequencies --   1222.4542              1222.4892              1233.8147
 Red. masses --      1.0577                 1.0576                 1.0774
 Frc consts  --      0.9313                 0.9312                 0.9663
 IR Inten    --      0.0188                94.8318                 0.0001

                     31                     32                     33
                      A                      A                      A
 Frequencies --   1233.9602              1324.6784              1324.6956
 Red. masses --      1.0822                 1.1906                 1.1874
 Frc consts  --      0.9708                 1.2309                 1.2277
 IR Inten    --    107.2268               147.8085                 0.0712

                     34                     35                     36
                      A                      A                      A
 Frequencies --   1803.3984              1805.6576              1890.3239
 Red. masses --     12.9713                12.9362                14.0037
 Frc consts  --     24.8551                24.8500                29.4825
 IR Inten    --      0.0006              1614.7954                 0.0000

                     37                     38                     39
                      A                      A                      A
 Frequencies --   2669.1390              2669.1959              2675.7038
 Red. masses --      1.0927                 1.0927                 1.0924
 Frc consts  --      4.5864                 4.5867                 4.6080
 IR Inten    --      0.0004               181.4144                 0.0129

                     40                     41                     42
                      A                      A                      A
 Frequencies --   2675.7493              2749.7666              2750.2608
 Red. masses --      1.0924                 1.0217                 1.0217
 Frc consts  --      4.6081                 4.5516                 4.5532
 IR Inten    --    225.1053               100.3200                 0.0000

 - Thermochemistry -
 -------------------
 Temperature   298.150 Kelvin.  Pressure   1.00000 Atm.
 Atom     1 has atomic number  7 and mass  14.00307

 Molecular mass:   146.03276 amu.
 Principal axes and moments of inertia in atomic units:
                           1         2         3
     Eigenvalues --   454.997443297.928453691.65541
           X            0.99982   0.01904   0.00171
           Y           -0.01904   0.99982   0.00238
           Z           -0.00167  -0.00241   1.00000
 This molecule is an asymmetric top.
 Rotational symmetry number  1.
 Warning -- assumption of classical behavior for rotation
           may cause significant error
 Rotational temperatures (Kelvin)      0.19036     0.02626     0.02346
 Rotational constants (GHZ):           3.96649     0.54723     0.48887
 Zero-point vibrational energy     268679.7 (Joules/Mol)
                                   64.21600 (Kcal/Mol)
 Warning -- explicit consideration of  15 degrees of freedom as
           vibrations may cause significant error
 Vibrational temperatures:     42.69    94.87    99.33   105.61   136.40
          (Kelvin)            139.46   187.56   296.20   320.75   365.98
                              428.15   564.54   717.25   740.84   834.22
                              961.39  1073.80  1336.91  1343.50  1517.83
                             1523.92  1536.04  1559.89  1593.00  1594.45
                             1703.38  1725.40  1758.84  1758.89  1775.18
                             1775.39  1905.91  1905.94  2594.68  2597.94
                             2719.75  3840.29  3840.37  3849.74  3849.80
                             3956.30  3957.01

 Zero-point correction=                           0.102335 (Hartree/Particle)
 Thermal correction to Energy=                    0.114099
 Thermal correction to Enthalpy=                  0.115043
 Thermal correction to Gibbs Free Energy=         0.062412
 Sum of electronic and zero-point Energies=             -0.081179
 Sum of electronic and thermal Energies=                -0.069415
 Sum of electronic and thermal Enthalpies=              -0.068471
 Sum of electronic and thermal Free Energies=           -0.121102

                     E (Thermal)             CV                S
                      KCal/Mol        Cal/Mol-Kelvin    Cal/Mol-Kelvin
 Total                   71.598             37.635            110.771
 Electronic               0.000              0.000              0.000
 Translational            0.889              2.981             40.847
 Rotational               0.889              2.981             30.095
 Vibrational             69.821             31.674             39.830
 Vibration     1          0.593              1.984              5.851
 Vibration     2          0.597              1.971              4.271
 Vibration     3          0.598              1.969              4.181
 Vibration     4          0.599              1.967              4.060
 Vibration     5          0.603              1.953              3.558
 Vibration     6          0.603              1.951              3.515
 Vibration     7          0.612              1.923              2.941
 Vibration     8          0.640              1.832              2.080
 Vibration     9          0.649              1.806              1.935
 Vibration    10          0.665              1.755              1.700
 Vibration    11          0.691              1.678              1.430
 Vibration    12          0.760              1.486              0.991
 Vibration    13          0.854              1.253              0.662
 Vibration    14          0.870              1.217              0.622
 Vibration    15          0.936              1.075              0.486

 Optimization completed.
    -- Stationary point found.
 Normal termination of Gaussian 09 at Sun Sep  6 18:33:01 2020.
