 Gaussian 09, Revision D.01,
 Gaussian 09:  ES64L-G09RevD.01 24-Apr-2013

 ----------------------------------------------------------------------
 # freq pm6 scrf=(cpcm,solvent=toluene) geom=connectivity empiricaldisp
 ersion=gd3
 ----------------------------------------------------------------------

 -------------------
 Title Card Required
 -------------------
 Symbolic Z-matrix:
 Charge =  0 Multiplicity = 1

                         Standard orientation:
 ---------------------------------------------------------------------
 Center     Atomic      Atomic             Coordinates (Angstroms)
 Number     Number       Type             X           Y           Z
 ---------------------------------------------------------------------
      1          6           0        0.489886    0.852633   -0.733148
      2          6           0        0.888957    1.657974    0.606043
      3          6           0       -1.419366    1.999892    0.336342
      4          6           0       -0.977739    1.282775   -0.951030
      5          1           0        1.138154    0.650144   -1.591888
      6          1           0       -1.622638    0.767488   -1.640976
      7          6           0       -0.395220    1.741892    1.446396
      8          1           0       -0.346955    2.567079    2.177864
      9          1           0       -0.607003    0.823936    2.025131
     10          6           0        0.765269    2.601896   -0.517280
     11          1           0        1.550888    3.130330   -1.024429
     12          6           0       -0.719661    2.793654   -0.787897
     13          1           0       -1.123098    3.624030   -1.333702
     14          1           0        1.833452    1.415700    1.096470
     15          1           0       -2.459816    2.140607    0.598568
     16          7           0       -0.271599   -1.235542    0.702069
     17          7           0        0.464378   -0.901452   -0.302250
     18          6           0       -1.698444   -1.188173    0.595946
     19          6           0        1.855946   -1.363008   -0.136489
     20          8           0        2.215371   -2.495593   -0.335102
     21          8           0       -2.438140   -0.989527    1.533150
     22          8           0        2.698543   -0.305089    0.083574
     23          8           0       -2.145871   -1.505658   -0.667576
     24          6           0       -3.583379   -1.609644   -0.853597
     25          1           0       -3.665415   -1.879578   -1.912946
     26          1           0       -3.984978   -2.395337   -0.205995
     27          1           0       -4.052797   -0.644331   -0.642673
     28          6           0        4.127807   -0.597307    0.077570
     29          1           0        4.359443   -1.318546    0.868031
     30          1           0        4.422163   -0.977458   -0.905480
     31          1           0        4.565592    0.386329    0.283785
 ---------------------------------------------------------------------

 SCF Done:  E(RPM6D3) = -0.224271492593E-01 A.U. after   19 cycles

 The electronic state is 1-A.
 Alpha  occ. eigenvalues --   -1.26225  -1.23407  -1.19957  -1.18110  -1.14662
 Alpha  occ. eigenvalues --   -1.12170  -1.03264  -0.99020  -0.95500  -0.95232
 Alpha  occ. eigenvalues --   -0.91078  -0.86481  -0.81394  -0.75574  -0.74979
 Alpha  occ. eigenvalues --   -0.73217  -0.71112  -0.69489  -0.68308  -0.63927
 Alpha  occ. eigenvalues --   -0.63510  -0.62548  -0.61065  -0.60367  -0.58384
 Alpha  occ. eigenvalues --   -0.55878  -0.55741  -0.55350  -0.54077  -0.53414
 Alpha  occ. eigenvalues --   -0.52193  -0.51849  -0.51032  -0.49602  -0.49000
 Alpha  occ. eigenvalues --   -0.48539  -0.47961  -0.45372  -0.44206  -0.43623
 Alpha  occ. eigenvalues --   -0.43519  -0.42787  -0.42045  -0.41978  -0.37534
 Alpha  occ. eigenvalues --   -0.31821
 Alpha virt. eigenvalues --   -0.06867  -0.00189   0.00798   0.02079   0.04057
 Alpha virt. eigenvalues --    0.05234   0.06652   0.07494   0.08324   0.09235
 Alpha virt. eigenvalues --    0.10281   0.10510   0.10578   0.11794   0.11979

 Mulliken charges:
               1
     1  C   -0.211041
     2  C   -0.039242
     3  C   -0.108352
     4  C   -0.154182
     5  H    0.190820
     6  H    0.181940
     7  C   -0.280716
     8  H    0.166131
     9  H    0.184942
    10  C   -0.037466
    11  H    0.171283
    12  C   -0.222316
    13  H    0.179983
    14  H    0.184672
    15  H    0.167818
    16  N   -0.412316
    17  N   -0.030355
    18  C    0.717653
    19  C    0.667874
    20  O   -0.489211
    21  O   -0.536694
    22  O   -0.434313
    23  O   -0.446039
    24  C   -0.174737
    25  H    0.163175
    26  H    0.151982
    27  H    0.147495
    28  C   -0.177475
    29  H    0.157443
    30  H    0.155458
    31  H    0.165785
 Sum of Mulliken charges =   0.00000

 Dipole moment (field-independent basis, Debye):
    X=              2.4508    Y=              7.3947    Z=             -3.0805  Tot=              8.3772
 N-N= 7.393443333093D+02 E-N=-1.356393553511D+03  KE=-5.956531363182D+01
  Exact polarizability: 177.758  30.831 276.505 -15.947 -26.737 111.593
 Approx polarizability: 106.337  15.887 144.592 -12.507 -11.219  80.978
 D2PCM: C-PCM CHGder 2nd derivatives, FixD1E=F FixD2E=F DoIter=F DoCFld=F I1PDM=0
 Calling FoFJK, ICntrl=    100127 FMM=F ISym2X=0 I1Cent= 0 IOpClX= 0 NMat=1 NMatS=1 NMatT=0.
 Full mass-weighted force constant matrix:
 Low frequencies --- -827.4863   -3.7340   -0.1617   -0.0341    0.2483    2.2347
 Low frequencies ---    6.2523   24.7403   37.1572
 ******    1 imaginary frequencies (negative Signs) ******
 Diagonal vibrational polarizability:

                      1                      2                      3
                      A                      A                      A
 Frequencies --   -827.4863                24.7259                37.1363
 Red. masses --      9.1646                 5.9578                 4.5974
 Frc consts  --      3.6973                 0.0021                 0.0037
 IR Inten    --   5284.9676                 2.6420                 3.2315

                      4                      5                      6
                      A                      A                      A
 Frequencies --     55.2570                58.1497                66.5411
 Red. masses --      1.7488                 1.2902                 1.3237
 Frc consts  --      0.0031                 0.0026                 0.0035
 IR Inten    --      0.2289                 0.8040                 0.3776

                      7                      8                      9
                      A                      A                      A
 Frequencies --     79.6503                91.2443               102.9255
 Red. masses --      5.0402                 4.3563                 4.2642
 Frc consts  --      0.0188                 0.0214                 0.0266
 IR Inten    --      1.7620                 2.2062                 1.8098

                     10                     11                     12
                      A                      A                      A
 Frequencies --    132.2430               154.8682               175.5680
 Red. masses --      3.9545                 4.9292                 4.6973
 Frc consts  --      0.0407                 0.0697                 0.0853
 IR Inten    --      1.9462                10.9733                 1.9604

                     13                     14                     15
                      A                      A                      A
 Frequencies --    187.0403               210.4969               256.7461
 Red. masses --      4.6049                 6.8381                 4.7700
 Frc consts  --      0.0949                 0.1785                 0.1853
 IR Inten    --      2.2727                15.7077                27.3771

                     16                     17                     18
                      A                      A                      A
 Frequencies --    289.0750               307.8546               343.0337
 Red. masses --      6.4120                 4.6505                10.3387
 Frc consts  --      0.3157                 0.2597                 0.7168
 IR Inten    --      4.6647                 1.3888                20.4701

                     19                     20                     21
                      A                      A                      A
 Frequencies --    415.4718               437.6448               488.5268
 Red. masses --      2.0111                 8.3381                 2.8811
 Frc consts  --      0.2045                 0.9409                 0.4051
 IR Inten    --      6.5154                 7.9424                22.1343

                     22                     23                     24
                      A                      A                      A
 Frequencies --    541.3187               565.5791               605.5940
 Red. masses --      8.0448                 7.0503                 6.8723
 Frc consts  --      1.3889                 1.3287                 1.4850
 IR Inten    --     36.3275                29.1014                40.4860

                     25                     26                     27
                      A                      A                      A
 Frequencies --    638.5278               663.7087               673.1608
 Red. masses --      4.8882                10.1514                 6.1328
 Frc consts  --      1.1743                 2.6347                 1.6374
 IR Inten    --     12.0633                24.5947                14.6878

                     28                     29                     30
                      A                      A                      A
 Frequencies --    719.5978               741.9486               744.5501
 Red. masses --      5.9537                 5.8976                 7.3582
 Frc consts  --      1.8164                 1.9128                 2.4033
 IR Inten    --     16.4186                45.8389                93.9039

                     31                     32                     33
                      A                      A                      A
 Frequencies --    865.2383               869.4008               881.3700
 Red. masses --      1.7246                 1.6714                 1.5787
 Frc consts  --      0.7607                 0.7443                 0.7225
 IR Inten    --      2.1508                22.7902                58.2654

                     34                     35                     36
                      A                      A                      A
 Frequencies --    909.0499               924.4247               934.8084
 Red. masses --      1.2848                 3.6504                 3.0209
 Frc consts  --      0.6255                 1.8379                 1.5554
 IR Inten    --     50.0214                65.2132                19.0169

                     37                     38                     39
                      A                      A                      A
 Frequencies --    950.0832               983.5372              1000.0504
 Red. masses --      2.4523                 1.5521                 1.2994
 Frc consts  --      1.3042                 0.8846                 0.7657
 IR Inten    --     23.4041                 6.0155                 8.4530

                     40                     41                     42
                      A                      A                      A
 Frequencies --   1010.5081              1026.2309              1035.6349
 Red. masses --      1.4473                 1.3814                 1.4436
 Frc consts  --      0.8707                 0.8571                 0.9122
 IR Inten    --      0.7567                13.6604                21.9664

                     43                     44                     45
                      A                      A                      A
 Frequencies --   1060.8313              1062.1785              1065.1824
 Red. masses --      1.3449                 1.2680                 1.2553
 Frc consts  --      0.8917                 0.8429                 0.8392
 IR Inten    --     11.0406                 6.7560                 2.1496

                     46                     47                     48
                      A                      A                      A
 Frequencies --   1078.0529              1083.1481              1090.7723
 Red. masses --      1.5857                 2.6064                 1.3582
 Frc consts  --      1.0858                 1.8016                 0.9521
 IR Inten    --      7.2624                48.1836                 5.4831

                     49                     50                     51
                      A                      A                      A
 Frequencies --   1104.8057              1110.6983              1114.2494
 Red. masses --      7.0547                 1.6709                 1.6809
 Frc consts  --      5.0734                 1.2145                 1.2296
 IR Inten    --    315.2188                16.6646                40.9787

                     52                     53                     54
                      A                      A                      A
 Frequencies --   1117.2045              1140.9085              1163.3483
 Red. masses --      1.2054                 2.0616                 1.4916
 Frc consts  --      0.8864                 1.5811                 1.1894
 IR Inten    --     20.8445                93.4448                 3.3994

                     55                     56                     57
                      A                      A                      A
 Frequencies --   1167.5578              1192.0317              1196.7082
 Red. masses --      1.8124                 2.2186                 3.9808
 Frc consts  --      1.4557                 1.8574                 3.3589
 IR Inten    --     49.0614                38.8870               102.2180

                     58                     59                     60
                      A                      A                      A
 Frequencies --   1205.0280              1226.2358              1227.7128
 Red. masses --      2.4681                 1.1186                 2.8625
 Frc consts  --      2.1116                 0.9910                 2.5421
 IR Inten    --     29.7761                57.6603               538.9537

                     61                     62                     63
                      A                      A                      A
 Frequencies --   1229.8743              1237.8171              1240.3433
 Red. masses --      1.0665                 1.0865                 1.5821
 Frc consts  --      0.9505                 0.9808                 1.4340
 IR Inten    --     56.4597                59.3970                29.4557

                     64                     65                     66
                      A                      A                      A
 Frequencies --   1242.3884              1261.2579              1280.7596
 Red. masses --      1.1693                 2.5641                 1.1646
 Frc consts  --      1.0634                 2.4032                 1.1255
 IR Inten    --    159.8491                27.8389                50.4506

                     67                     68                     69
                      A                      A                      A
 Frequencies --   1325.7797              1328.8194              1371.4388
 Red. masses --      1.1790                 1.1880                 5.0630
 Frc consts  --      1.2210                 1.2359                 5.6106
 IR Inten    --     49.7685               107.0860                78.0607

                     70                     71                     72
                      A                      A                      A
 Frequencies --   1421.2985              1550.8753              1778.2647
 Red. masses --      6.0098                10.7519                12.9209
 Frc consts  --      7.1529                15.2367                24.0732
 IR Inten    --      7.9097              2065.4510               736.7774

                     73                     74                     75
                      A                      A                      A
 Frequencies --   1789.0395              2661.2878              2670.0199
 Red. masses --     12.8764                 1.0860                 1.0919
 Frc consts  --     24.2819                 4.5317                 4.5863
 IR Inten    --    945.8268                68.5016                78.4380

                     76                     77                     78
                      A                      A                      A
 Frequencies --   2672.9006              2681.7495              2683.4139
 Red. masses --      1.0914                 1.0922                 1.0916
 Frc consts  --      4.5941                 4.6280                 4.6311
 IR Inten    --     67.6067                80.4319                82.6294

                     79                     80                     81
                      A                      A                      A
 Frequencies --   2693.1396              2724.4083              2742.9338
 Red. masses --      1.0730                 1.0744                 1.0503
 Frc consts  --      4.5852                 4.6985                 4.6559
 IR Inten    --    163.3306               140.3449               119.2624

                     82                     83                     84
                      A                      A                      A
 Frequencies --   2751.1228              2753.8705              2755.8558
 Red. masses --      1.0714                 1.0256                 1.0243
 Frc consts  --      4.7779                 4.5828                 4.5833
 IR Inten    --    411.6813               139.8062                16.3750

                     85                     86                     87
                      A                      A                      A
 Frequencies --   2760.5333              2767.2931              2783.5565
 Red. masses --      1.0734                 1.0754                 1.0798
 Frc consts  --      4.8193                 4.8523                 4.9295
 IR Inten    --     91.4548                68.6308               309.0861

 - Thermochemistry -
 -------------------
 Temperature   298.150 Kelvin.  Pressure   1.00000 Atm.
 Atom     1 has atomic number  6 and mass  12.00000

 Molecular mass:   238.09536 amu.
 Principal axes and moments of inertia in atomic units:
                           1         2         3
     Eigenvalues --  2794.936734072.586905787.81340
           X            0.99974   0.01903   0.01287
           Y           -0.01914   0.99978   0.00853
           Z           -0.01271  -0.00877   0.99988
 This molecule is an asymmetric top.
 Rotational symmetry number  1.
 Warning -- assumption of classical behavior for rotation
           may cause significant error
 Rotational temperatures (Kelvin)      0.03099     0.02127     0.01496
 Rotational constants (GHZ):           0.64572     0.44314     0.31182
    1 imaginary frequencies ignored.
 Zero-point vibrational energy     584765.9 (Joules/Mol)
                                  139.76239 (Kcal/Mol)
 Warning -- explicit consideration of  23 degrees of freedom as
           vibrations may cause significant error
 Vibrational temperatures:     35.57    53.43    79.50    83.66    95.74
          (Kelvin)            114.60   131.28   148.09   190.27   222.82
                              252.60   269.11   302.86   369.40   415.91
                              442.93   493.55   597.77   629.67   702.88
                              778.84   813.74   871.31   918.70   954.93
                              968.53  1035.34  1067.50  1071.24  1244.88
                             1250.87  1268.09  1307.92  1330.04  1344.98
                             1366.96  1415.09  1438.85  1453.89  1476.52
                             1490.05  1526.30  1528.24  1532.56  1551.08
                             1558.41  1569.38  1589.57  1598.05  1603.15
                             1607.41  1641.51  1673.80  1679.85  1715.07
                             1721.79  1733.76  1764.28  1766.40  1769.51
                             1780.94  1784.58  1787.52  1814.67  1842.73
                             1907.50  1911.87  1973.19  2044.93  2231.36
                             2558.52  2574.03  3828.99  3841.56  3845.70
                             3858.43  3860.83  3874.82  3919.81  3946.47
                             3958.25  3962.20  3965.06  3971.79  3981.51
                             4004.91

 Zero-point correction=                           0.222726 (Hartree/Particle)
 Thermal correction to Energy=                    0.239834
 Thermal correction to Enthalpy=                  0.240778
 Thermal correction to Gibbs Free Energy=         0.175552
 Sum of electronic and zero-point Energies=              0.200298
 Sum of electronic and thermal Energies=                 0.217407
 Sum of electronic and thermal Enthalpies=               0.218351
 Sum of electronic and thermal Free Energies=            0.153125

                     E (Thermal)             CV                S
                      KCal/Mol        Cal/Mol-Kelvin    Cal/Mol-Kelvin
 Total                  150.498             61.743            137.279
 Electronic               0.000              0.000              0.000
 Translational            0.889              2.981             42.304
 Rotational               0.889              2.981             32.555
 Vibrational            148.721             55.782             62.421
 Vibration     1          0.593              1.985              6.213
 Vibration     2          0.594              1.982              5.406
 Vibration     3          0.596              1.975              4.620
 Vibration     4          0.596              1.974              4.519
 Vibration     5          0.598              1.970              4.253
 Vibration     6          0.600              1.963              3.899
 Vibration     7          0.602              1.955              3.633
 Vibration     8          0.605              1.947              3.398
 Vibration     9          0.612              1.921              2.913
 Vibration    10          0.620              1.897              2.612
 Vibration    11          0.628              1.872              2.375
 Vibration    12          0.632              1.858              2.257
 Vibration    13          0.643              1.825              2.039
 Vibration    14          0.666              1.751              1.684
 Vibration    15          0.686              1.694              1.479
 Vibration    16          0.698              1.659              1.374
 Vibration    17          0.722              1.589              1.198
 Vibration    18          0.779              1.437              0.907
 Vibration    19          0.798              1.388              0.834
 Vibration    20          0.844              1.275              0.687
 Vibration    21          0.896              1.159              0.562
 Vibration    22          0.921              1.106              0.513
 Vibration    23          0.964              1.020              0.440

 Normal termination of Gaussian 09 at Mon Sep  7 02:56:21 2020.
