 Gaussian 09, Revision D.01,
 Gaussian 09:  ES64L-G09RevD.01 24-Apr-2013

 ----------------------------------------------------------------------
 # opt freq pm6 scrf=(cpcm,solvent=toluene) geom=connectivity empirical
 dispersion=gd3
 ----------------------------------------------------------------------

 -------------------
 Title Card Required
 -------------------
 Symbolic Z-matrix:
 Charge =  0 Multiplicity = 3

 SCF Done:  E(UPM6D3) = -0.952381641661E-01 A.U. after   20 cycles
 SCF Done:  E(UPM6D3) = -0.110289628718     A.U. after   18 cycles
 SCF Done:  E(UPM6D3) = -0.111936266612     A.U. after   19 cycles
 SCF Done:  E(UPM6D3) = -0.113332070730     A.U. after   20 cycles
 SCF Done:  E(UPM6D3) = -0.114681444123     A.U. after   19 cycles
 SCF Done:  E(UPM6D3) = -0.116624519204     A.U. after   18 cycles
 SCF Done:  E(UPM6D3) = -0.117037009841     A.U. after   18 cycles
 SCF Done:  E(UPM6D3) = -0.117313733967     A.U. after   16 cycles
 SCF Done:  E(UPM6D3) = -0.117372656765     A.U. after   16 cycles
 SCF Done:  E(UPM6D3) = -0.117390476786     A.U. after   16 cycles
 SCF Done:  E(UPM6D3) = -0.117394628667     A.U. after   15 cycles
 SCF Done:  E(UPM6D3) = -0.117400903682     A.U. after   15 cycles
 SCF Done:  E(UPM6D3) = -0.117403647731     A.U. after   15 cycles
 SCF Done:  E(UPM6D3) = -0.117404954704     A.U. after   14 cycles
 SCF Done:  E(UPM6D3) = -0.117405910597     A.U. after   14 cycles
 SCF Done:  E(UPM6D3) = -0.117406536519     A.U. after   14 cycles
 SCF Done:  E(UPM6D3) = -0.117407210406     A.U. after   12 cycles
 SCF Done:  E(UPM6D3) = -0.117407628794     A.U. after   14 cycles
 SCF Done:  E(UPM6D3) = -0.117407671830     A.U. after   13 cycles
 Optimization completed.
    -- Stationary point found.
 Normal termination of Gaussian 09 at Mon Jul 12 13:38:33 2021.

 -------------------------------------------------------------
 #N Geom=AllCheck Guess=TCheck SCRF=Check GenChk UPM6/ZDO Freq
 -------------------------------------------------------------

 Structure from the checkpoint file:  "product_cycloaddition_m062x_toluene_2.chk"
 -------------------
 Title Card Required
 -------------------
 Charge =  0 Multiplicity = 3

                         Standard orientation:
 ---------------------------------------------------------------------
 Center     Atomic      Atomic             Coordinates (Angstroms)
 Number     Number       Type             X           Y           Z
 ---------------------------------------------------------------------
      1          6           0        0.449790    0.702303   -0.536272
      2          6           0        0.742825    1.822878    0.550822
      3          6           0       -1.587753    1.763586    0.403465
      4          6           0       -1.000516    1.110822   -0.854308
      5          1           0        1.114006    0.816472   -1.431954
      6          1           0       -1.570609    0.563556   -1.592204
      7          6           0       -0.502098    1.704455    1.494511
      8          1           0       -0.570297    2.541506    2.204942
      9          1           0       -0.523892    0.777813    2.084790
     10          6           0        0.345123    3.030205   -0.269301
     11          1           0        0.889183    3.918644   -0.444585
     12          6           0       -1.016573    2.661961   -0.722893
     13          1           0       -1.612426    3.305532   -1.350899
     14          1           0        1.728005    1.798311    1.017166
     15          1           0       -2.631619    1.718534    0.673126
     16          7           0       -0.215141   -1.509530    0.517937
     17          7           0        0.656973   -0.689838   -0.026908
     18          6           0       -1.634442   -1.353961    0.462390
     19          6           0        2.025128   -1.188881    0.057120
     20          8           0        2.388524   -2.278407    0.409075
     21          8           0       -2.360527   -1.252051    1.422560
     22          8           0        2.847315   -0.177722   -0.379512
     23          8           0       -2.078890   -1.537262   -0.827304
     24          6           0       -3.518686   -1.653955   -1.009456
     25          1           0       -3.604836   -1.793588   -2.093742
     26          1           0       -3.891354   -2.524116   -0.459727
     27          1           0       -4.008508   -0.733640   -0.676853
     28          6           0        4.271723   -0.499877   -0.418422
     29          1           0        4.699697    0.440036   -0.790595
     30          1           0        4.625299   -0.737785    0.590091
     31          1           0        4.446021   -1.329389   -1.111251
 ---------------------------------------------------------------------

 SCF Done:  E(UPM6D3) = -0.117407671827     A.U. after    2 cycles

 The electronic state is 3-A.
 Alpha  occ. eigenvalues --   -1.28614  -1.21715  -1.19894  -1.19431  -1.16031
 Alpha  occ. eigenvalues --   -1.13649  -1.07211  -0.96905  -0.96197  -0.94398
 Alpha  occ. eigenvalues --   -0.91544  -0.90315  -0.83179  -0.78248  -0.74310
 Alpha  occ. eigenvalues --   -0.72794  -0.71008  -0.69866  -0.68353  -0.66153
 Alpha  occ. eigenvalues --   -0.64355  -0.63697  -0.63019  -0.61715  -0.59396
 Alpha  occ. eigenvalues --   -0.56721  -0.56418  -0.56229  -0.54026  -0.53703
 Alpha  occ. eigenvalues --   -0.52600  -0.51498  -0.50566  -0.49834  -0.49092
 Alpha  occ. eigenvalues --   -0.48429  -0.47072  -0.46128  -0.45269  -0.44577
 Alpha  occ. eigenvalues --   -0.44316  -0.43407  -0.42677  -0.41759  -0.40950
 Alpha  occ. eigenvalues --   -0.36061  -0.34163
 Alpha virt. eigenvalues --   -0.03592   0.00564   0.01155   0.03051   0.04524
 Alpha virt. eigenvalues --    0.06941   0.07846   0.08856   0.09662   0.10218
 Alpha virt. eigenvalues --    0.11029   0.11127   0.11874   0.12170   0.12552

  Beta  occ. eigenvalues --   -1.25905  -1.21302  -1.19412  -1.19103  -1.15894
  Beta  occ. eigenvalues --   -1.13340  -1.05347  -0.96660  -0.96047  -0.93934
  Beta  occ. eigenvalues --   -0.90874  -0.89610  -0.82856  -0.77410  -0.73876
  Beta  occ. eigenvalues --   -0.72347  -0.70492  -0.69331  -0.67928  -0.65037
  Beta  occ. eigenvalues --   -0.63799  -0.63420  -0.62639  -0.61598  -0.58430
  Beta  occ. eigenvalues --   -0.56409  -0.55960  -0.55314  -0.53771  -0.53341
  Beta  occ. eigenvalues --   -0.51237  -0.50281  -0.49692  -0.48928  -0.48823
  Beta  occ. eigenvalues --   -0.47499  -0.46580  -0.44490  -0.44234  -0.43994
  Beta  occ. eigenvalues --   -0.43084  -0.42962  -0.42163  -0.41305  -0.39596
  Beta virt. eigenvalues --   -0.03998  -0.02233   0.00521   0.01264   0.02240
  Beta virt. eigenvalues --    0.04630   0.05175   0.07610   0.09027   0.09098
  Beta virt. eigenvalues --    0.09986   0.10902   0.11312   0.11706   0.12116

 Mulliken charges and spin densities:
               1          2
     1  C    0.025085  -0.002502
     2  C   -0.103383  -0.047533
     3  C   -0.114495   0.063189
     4  C   -0.233231   0.065789
     5  H    0.171450   0.002381
     6  H    0.182540  -0.001792
     7  C   -0.279625   0.026798
     8  H    0.155740  -0.000896
     9  H    0.158410  -0.000661
    10  C   -0.185650   1.014028
    11  H    0.157047  -0.029855
    12  C   -0.150212  -0.101636
    13  H    0.164082   0.002947
    14  H    0.152010   0.001595
    15  H    0.161840  -0.001441
    16  N   -0.342278   0.649090
    17  N   -0.113199   0.353924
    18  C    0.708545  -0.035906
    19  C    0.701191  -0.018288
    20  O   -0.461394   0.042337
    21  O   -0.514222  -0.002399
    22  O   -0.421495  -0.000525
    23  O   -0.436169   0.022325
    24  C   -0.174499  -0.000305
    25  H    0.166158   0.000983
    26  H    0.155118   0.000131
    27  H    0.151166  -0.000053
    28  C   -0.169046  -0.001905
    29  H    0.171881  -0.000213
    30  H    0.158580   0.000177
    31  H    0.158052   0.000217
 Sum of Mulliken charges =   0.00000   2.00000

 Dipole moment (field-independent basis, Debye):
    X=              1.5722    Y=              5.0036    Z=             -3.8418  Tot=              6.5014
 N-N= 7.365316989093D+02 E-N=-1.350483170431D+03  KE=-5.955356198555D+01
  Exact polarizability: 167.747   4.898 123.741 -10.262 -12.424 100.848
 Approx polarizability:  96.962   2.159  80.028  -7.153 -10.107  71.151
 D2PCM: C-PCM CHGder 2nd derivatives, FixD1E=F FixD2E=F DoIter=F DoCFld=F I1PDM=0
 Calling FoFJK, ICntrl=    100127 FMM=F ISym2X=0 I1Cent= 0 IOpClX= 1 NMat=1 NMatS=1 NMatT=0.
 Full mass-weighted force constant matrix:
 Low frequencies ---   -6.8595   -1.1266   -0.1196   -0.0557    0.9496    3.8472
 Low frequencies ---   25.8279   37.6942   45.5016
 Diagonal vibrational polarizability:
       84.2473588      82.8000269     166.7947292

                      1                      2                      3
                      A                      A                      A
 Frequencies --     25.7869                37.6690                45.4838
 Red. masses --      5.0019                 3.8333                 3.8415
 Frc consts  --      0.0020                 0.0032                 0.0047
 IR Inten    --      2.7061                 0.1347                 3.7484

                      4                      5                      6
                      A                      A                      A
 Frequencies --     64.9028                66.1029                79.7074
 Red. masses --      2.2409                 1.5265                 1.2654
 Frc consts  --      0.0056                 0.0039                 0.0047
 IR Inten    --      3.2932                 0.9080                 1.3304

                      7                      8                      9
                      A                      A                      A
 Frequencies --     94.9393               103.0733               120.0888
 Red. masses --      4.3829                 3.9998                 3.7859
 Frc consts  --      0.0233                 0.0250                 0.0322
 IR Inten    --      0.8360                 0.5300                 2.0437

                     10                     11                     12
                      A                      A                      A
 Frequencies --    136.9612               167.9927               202.3483
 Red. masses --      4.7250                 5.1597                 4.9135
 Frc consts  --      0.0522                 0.0858                 0.1185
 IR Inten    --      8.4553                 3.6883                 8.1281

                     13                     14                     15
                      A                      A                      A
 Frequencies --    241.8961               264.0849               302.3331
 Red. masses --      5.4830                 4.9637                 5.4516
 Frc consts  --      0.1890                 0.2040                 0.2936
 IR Inten    --      3.6952                20.1814                 3.7935

                     16                     17                     18
                      A                      A                      A
 Frequencies --    331.7993               342.8236               380.2524
 Red. masses --      3.9906                 2.7447                 2.7989
 Frc consts  --      0.2588                 0.1901                 0.2384
 IR Inten    --     22.8110                 2.8607                 3.5541

                     19                     20                     21
                      A                      A                      A
 Frequencies --    410.4048               430.9857               481.3292
 Red. masses --      8.1647                 2.1639                 7.3983
 Frc consts  --      0.8102                 0.2368                 1.0099
 IR Inten    --     20.1167                 3.2527                18.3441

                     22                     23                     24
                      A                      A                      A
 Frequencies --    584.3179               601.4031               623.1397
 Red. masses --      6.9224                11.5443                 7.3257
 Frc consts  --      1.3925                 2.4601                 1.6760
 IR Inten    --     28.9083                84.3063                25.9822

                     25                     26                     27
                      A                      A                      A
 Frequencies --    647.6891               666.2079               679.6430
 Red. masses --      5.4547                 2.3844                 4.5904
 Frc consts  --      1.3482                 0.6235                 1.2493
 IR Inten    --      1.2820                41.8936                33.4641

                     28                     29                     30
                      A                      A                      A
 Frequencies --    735.4172               754.8495               848.8204
 Red. masses --      6.6948                 5.8748                 3.2742
 Frc consts  --      2.1333                 1.9722                 1.3899
 IR Inten    --     61.8919                31.0280                11.5118

                     31                     32                     33
                      A                      A                      A
 Frequencies --    868.3824               879.0552               891.6713
 Red. masses --      3.7886                 2.5222                 1.3204
 Frc consts  --      1.6833                 1.1483                 0.6186
 IR Inten    --      1.8195                59.1237                26.3922

                     34                     35                     36
                      A                      A                      A
 Frequencies --    927.2872               952.2451               954.0741
 Red. masses --      3.0076                 1.8229                 2.0296
 Frc consts  --      1.5237                 0.9739                 1.0885
 IR Inten    --     36.3212                19.4451                 9.4877

                     37                     38                     39
                      A                      A                      A
 Frequencies --    985.4308               992.6212              1019.3793
 Red. masses --      1.6186                 1.8722                 1.3337
 Frc consts  --      0.9261                 1.0868                 0.8165
 IR Inten    --      1.6625                 9.8541                18.4880

                     40                     41                     42
                      A                      A                      A
 Frequencies --   1029.3931              1041.4711              1058.7510
 Red. masses --      2.0996                 1.6293                 1.2383
 Frc consts  --      1.3108                 1.0413                 0.8179
 IR Inten    --     28.8838                19.8314                 4.3689

                     43                     44                     45
                      A                      A                      A
 Frequencies --   1064.2191              1066.9843              1073.0010
 Red. masses --      1.2506                 1.2821                 1.4581
 Frc consts  --      0.8345                 0.8600                 0.9891
 IR Inten    --      7.1283                 7.6836                 1.1159

                     46                     47                     48
                      A                      A                      A
 Frequencies --   1084.6284              1090.8240              1097.6414
 Red. masses --      1.3415                 1.7040                 4.3066
 Frc consts  --      0.9298                 1.1946                 3.0570
 IR Inten    --     60.8547                 1.2589               358.2584

                     49                     50                     51
                      A                      A                      A
 Frequencies --   1105.3186              1112.5312              1114.3852
 Red. masses --      2.8193                 1.7123                 1.2449
 Frc consts  --      2.0294                 1.2487                 0.9108
 IR Inten    --     40.2113                39.6999                10.4664

                     52                     53                     54
                      A                      A                      A
 Frequencies --   1136.1923              1165.8670              1172.9541
 Red. masses --      3.2996                 2.6666                 3.1252
 Frc consts  --      2.5096                 2.1355                 2.5333
 IR Inten    --     16.7216               133.7275                76.8815

                     55                     56                     57
                      A                      A                      A
 Frequencies --   1192.0521              1200.8653              1222.4473
 Red. masses --      1.7138                 3.1062                 1.1547
 Frc consts  --      1.4348                 2.6392                 1.0167
 IR Inten    --    290.0525               696.8146                24.2796

                     58                     59                     60
                      A                      A                      A
 Frequencies --   1222.7265              1227.4366              1230.3554
 Red. masses --      1.4448                 1.0649                 2.5906
 Frc consts  --      1.2727                 0.9453                 2.3106
 IR Inten    --     27.7644                40.4061                15.7485

                     61                     62                     63
                      A                      A                      A
 Frequencies --   1234.7484              1240.2956              1254.3248
 Red. masses --      1.0825                 1.1017                 1.9751
 Frc consts  --      0.9724                 0.9986                 1.8308
 IR Inten    --     45.6143                45.1907                41.0059

                     64                     65                     66
                      A                      A                      A
 Frequencies --   1265.2797              1285.0132              1295.2490
 Red. masses --      2.6742                 2.7500                 1.7347
 Frc consts  --      2.5224                 2.6755                 1.7147
 IR Inten    --     35.8397                38.4996                63.3465

                     67                     68                     69
                      A                      A                      A
 Frequencies --   1299.3457              1324.3961              1327.3777
 Red. masses --      1.1822                 1.1720                 1.1754
 Frc consts  --      1.1759                 1.2112                 1.2202
 IR Inten    --     43.2680                96.3123                51.5647

                     70                     71                     72
                      A                      A                      A
 Frequencies --   1400.9632              1643.4838              1786.3910
 Red. masses --      5.8372                12.1407                12.8929
 Frc consts  --      6.7500                19.3208                24.2412
 IR Inten    --      4.9950                31.2487               766.6506

                     73                     74                     75
                      A                      A                      A
 Frequencies --   1808.0112              2661.6035              2668.4386
 Red. masses --     12.8519                 1.0665                 1.0924
 Frc consts  --     24.7526                 4.4513                 4.5830
 IR Inten    --    738.1594               105.5378                90.5633

                     76                     77                     78
                      A                      A                      A
 Frequencies --   2671.2561              2677.4741              2681.5596
 Red. masses --      1.0917                 1.0924                 1.0918
 Frc consts  --      4.5898                 4.6139                 4.6255
 IR Inten    --     76.6395               102.8847                99.1130

                     79                     80                     81
                      A                      A                      A
 Frequencies --   2681.8749              2745.4607              2750.6583
 Red. masses --      1.0883                 1.0723                 1.0220
 Frc consts  --      4.6118                 4.7621                 4.5558
 IR Inten    --     76.9278               106.0571                51.8510

                     82                     83                     84
                      A                      A                      A
 Frequencies --   2752.1549              2754.3149              2757.2789
 Red. masses --      1.0681                 1.0242                 1.0526
 Frc consts  --      4.7664                 4.5779                 4.7149
 IR Inten    --    158.6426                16.8001                46.0108

                     85                     86                     87
                      A                      A                      A
 Frequencies --   2766.3598              2776.3174              2793.5534
 Red. masses --      1.0736                 1.0758                 1.0812
 Frc consts  --      4.8406                 4.8854                 4.9715
 IR Inten    --     96.5370               141.2650               106.0269

 - Thermochemistry -
 -------------------
 Temperature   298.150 Kelvin.  Pressure   1.00000 Atm.
 Atom     1 has atomic number  6 and mass  12.00000

 Molecular mass:   238.09536 amu.
 Principal axes and moments of inertia in atomic units:
                           1         2         3
     Eigenvalues --  2807.968874193.634975963.98084
           X            0.99982   0.01725   0.00737
           Y           -0.01737   0.99972   0.01594
           Z           -0.00709  -0.01607   0.99985
 This molecule is an asymmetric top.
 Rotational symmetry number  1.
 Warning -- assumption of classical behavior for rotation
           may cause significant error
 Rotational temperatures (Kelvin)      0.03085     0.02065     0.01452
 Rotational constants (GHZ):           0.64272     0.43035     0.30261
 Zero-point vibrational energy     591887.3 (Joules/Mol)
                                  141.46446 (Kcal/Mol)
 Warning -- explicit consideration of  23 degrees of freedom as
           vibrations may cause significant error
 Vibrational temperatures:     37.10    54.20    65.44    93.38    95.11
          (Kelvin)            114.68   136.60   148.30   172.78   197.06
                              241.70   291.13   348.03   379.96   434.99
                              477.38   493.25   547.10   590.48   620.09
                              692.52   840.70   865.28   896.56   931.88
                              958.52   977.85  1058.10  1086.06  1221.26
                             1249.41  1264.76  1282.91  1334.16  1370.07
                             1372.70  1417.81  1428.16  1466.66  1481.07
                             1498.44  1523.30  1531.17  1535.15  1543.81
                             1560.54  1569.45  1579.26  1590.30  1600.68
                             1603.35  1634.73  1677.42  1687.62  1715.09
                             1727.78  1758.83  1759.23  1766.01  1770.20
                             1776.53  1784.51  1804.69  1820.45  1848.85
                             1863.57  1869.47  1905.51  1909.80  2015.67
                             2364.60  2570.22  2601.32  3829.45  3839.28
                             3843.34  3852.28  3858.16  3858.62  3950.10
                             3957.58  3959.73  3962.84  3967.10  3980.17
                             3994.50  4019.30

 Zero-point correction=                           0.225438 (Hartree/Particle)
 Thermal correction to Energy=                    0.242673
 Thermal correction to Enthalpy=                  0.243617
 Thermal correction to Gibbs Free Energy=         0.177090
 Sum of electronic and zero-point Energies=              0.108030
 Sum of electronic and thermal Energies=                 0.125265
 Sum of electronic and thermal Enthalpies=               0.126209
 Sum of electronic and thermal Free Energies=            0.059682

                     E (Thermal)             CV                S
                      KCal/Mol        Cal/Mol-Kelvin    Cal/Mol-Kelvin
 Total                  152.280             62.312            140.019
 Electronic               0.000              0.000              2.183
 Translational            0.889              2.981             42.304
 Rotational               0.889              2.981             32.618
 Vibrational            150.502             56.351             62.913
 Vibration     1          0.593              1.985              6.130
 Vibration     2          0.594              1.982              5.378
 Vibration     3          0.595              1.979              5.005
 Vibration     4          0.597              1.971              4.302
 Vibration     5          0.598              1.970              4.266
 Vibration     6          0.600              1.963              3.898
 Vibration     7          0.603              1.953              3.556
 Vibration     8          0.605              1.947              3.395
 Vibration     9          0.609              1.933              3.099
 Vibration    10          0.614              1.916              2.846
 Vibration    11          0.625              1.882              2.458
 Vibration    12          0.639              1.837              2.112
 Vibration    13          0.658              1.776              1.789
 Vibration    14          0.671              1.739              1.635
 Vibration    15          0.694              1.669              1.404
 Vibration    16          0.714              1.612              1.251
 Vibration    17          0.722              1.590              1.199
 Vibration    18          0.750              1.512              1.038
 Vibration    19          0.775              1.448              0.925
 Vibration    20          0.792              1.403              0.855
 Vibration    21          0.838              1.291              0.706
 Vibration    22          0.941              1.065              0.477
 Vibration    23          0.960              1.029              0.447

 Normal termination of Gaussian 09 at Mon Jul 12 13:38:42 2021.
