 Gaussian 09, Revision D.01,
 Gaussian 09:  ES64L-G09RevD.01 24-Apr-2013

 ----------------------------------------------------------------------
 # opt freq pm6 scrf=(cpcm,solvent=toluene) geom=connectivity empirical
 dispersion=gd3
 ----------------------------------------------------------------------

 -------------------
 Title Card Required
 -------------------
 Symbolic Z-matrix:
 Charge =  0 Multiplicity = 1

 SCF Done:  E(RPM6D3) =  0.216520088900     A.U. after   14 cycles
 SCF Done:  E(RPM6D3) =  0.181862119334     A.U. after   13 cycles
 SCF Done:  E(RPM6D3) =  0.137744954997     A.U. after   14 cycles
 SCF Done:  E(RPM6D3) =  0.120249135773     A.U. after   13 cycles
 SCF Done:  E(RPM6D3) =  0.118435380831     A.U. after   13 cycles
 SCF Done:  E(RPM6D3) =  0.118189571796     A.U. after   11 cycles
 SCF Done:  E(RPM6D3) =  0.118157900570     A.U. after   11 cycles
 SCF Done:  E(RPM6D3) =  0.118083559252     A.U. after   10 cycles
 Optimization completed.
    -- Stationary point found.
 Normal termination of Gaussian 09 at Sun Sep  6 18:32:53 2020.

 -------------------------------------------------------------
 #N Geom=AllCheck Guess=TCheck SCRF=Check GenChk RPM6/ZDO Freq
 -------------------------------------------------------------

 Structure from the checkpoint file:  "quadricyclane_cycloaddition_PM6_toluene.chk"
 -------------------
 Title Card Required
 -------------------
 Charge =  0 Multiplicity = 1

                         Standard orientation:
 ---------------------------------------------------------------------
 Center     Atomic      Atomic             Coordinates (Angstroms)
 Number     Number       Type             X           Y           Z
 ---------------------------------------------------------------------
      1          6           0        0.000000   -1.093569   -0.716225
      2          6           0        0.827950   -0.830025    0.556267
      3          6           0       -0.827950    0.830025    0.556267
      4          6           0       -1.093430    0.003106   -0.716251
      5          1           0       -0.077501   -2.015623   -1.248052
      6          1           0       -2.015592   -0.071457   -1.248643
      7          6           0        0.000000    0.000000    1.541226
      8          1           0        0.629543    0.627841    2.190829
      9          1           0       -0.629543   -0.627841    2.190829
     10          6           0        1.093430   -0.003106   -0.716251
     11          1           0        2.015592    0.071457   -1.248643
     12          6           0        0.000000    1.093569   -0.716225
     13          1           0        0.077501    2.015623   -1.248052
     14          1           0        1.541270   -1.545658    0.939438
     15          1           0       -1.541270    1.545658    0.939438
 ---------------------------------------------------------------------

 SCF Done:  E(RPM6D3) =  0.118083559251     A.U. after    2 cycles

 The electronic state is 1-A.
 Alpha  occ. eigenvalues --   -1.21802  -0.97059  -0.93719  -0.81679  -0.72358
 Alpha  occ. eigenvalues --   -0.71239  -0.67026  -0.65520  -0.54829  -0.53423
 Alpha  occ. eigenvalues --   -0.53285  -0.49833  -0.45714  -0.44889  -0.43062
 Alpha  occ. eigenvalues --   -0.40365  -0.39489  -0.36242
 Alpha virt. eigenvalues --    0.06787   0.10424   0.11757   0.12643   0.13092
 Alpha virt. eigenvalues --    0.13838   0.14495   0.16475   0.17607   0.18536
 Alpha virt. eigenvalues --    0.21185   0.21787   0.22408   0.22553   0.22600

 Mulliken charges:
               1
     1  C   -0.173594
     2  C   -0.136563
     3  C   -0.136563
     4  C   -0.173311
     5  H    0.157336
     6  H    0.157331
     7  C   -0.258105
     8  H    0.147193
     9  H    0.147193
    10  C   -0.173311
    11  H    0.157331
    12  C   -0.173594
    13  H    0.157336
    14  H    0.150660
    15  H    0.150660
 Sum of Mulliken charges =   0.00000

 Dipole moment (field-independent basis, Debye):
    X=              0.0000    Y=              0.0000    Z=              0.3135  Tot=              0.3135
 N-N= 1.689502595338D+02 E-N=-2.927361517187D+02  KE=-2.243115768594D+01
 Symmetry A    KE=-1.202469299124D+01
 Symmetry B    KE=-1.040646469470D+01
  Exact polarizability:  49.741   3.031  49.723   0.000   0.000  54.103
 Approx polarizability:  32.704   2.258  32.691   0.000   0.000  34.521
 D2PCM: C-PCM CHGder 2nd derivatives, FixD1E=F FixD2E=F DoIter=F DoCFld=F I1PDM=0
 Calling FoFJK, ICntrl=    100127 FMM=F ISym2X=1 I1Cent= 0 IOpClX= 0 NMat=1 NMatS=1 NMatT=0.
 Full mass-weighted force constant matrix:
 Low frequencies ---  -20.1619  -19.6792   -0.0384   -0.0014    0.0048    2.9880
 Low frequencies ---  357.9477  468.7798  652.3425

                      1                      2                      3
                      B                      A                      B
 Frequencies --    357.9360               468.7770               652.3419
 Red. masses --      1.8107                 2.3398                 5.1713
 Frc consts  --      0.1367                 0.3029                 1.2966
 IR Inten    --      3.1657                 0.0000                 0.2328

                      4                      5                      6
                      A                      A                      B
 Frequencies --    687.7936               691.0050               821.3506
 Red. masses --      5.8587                 4.5817                 3.7141
 Frc consts  --      1.6329                 1.2889                 1.4762
 IR Inten    --      0.9522                 0.0003                 1.4451

                      7                      8                      9
                      B                      B                      A
 Frequencies --    844.8518               858.1469               872.4456
 Red. masses --      1.7628                 1.2793                 1.7436
 Frc consts  --      0.7413                 0.5551                 0.7819
 IR Inten    --      2.5907                55.7301                15.7785

                     10                     11                     12
                      A                      A                      B
 Frequencies --    893.7424               901.1397               956.5717
 Red. masses --      1.5702                 1.9515                 1.6120
 Frc consts  --      0.7390                 0.9337                 0.8691
 IR Inten    --      0.0000                13.3801                 3.2091

                     13                     14                     15
                      B                      A                      B
 Frequencies --    957.9485               985.7632              1026.1019
 Red. masses --      2.0447                 1.4523                 1.2253
 Frc consts  --      1.1055                 0.8315                 0.7601
 IR Inten    --      5.1524                 0.0000                 1.8744

                     16                     17                     18
                      A                      B                      A
 Frequencies --   1029.9248              1030.5215              1034.3128
 Red. masses --      1.3869                 1.4541                 1.5862
 Frc consts  --      0.8668                 0.9098                 0.9998
 IR Inten    --      4.8177                14.5818                 0.0007

                     19                     20                     21
                      B                      A                      A
 Frequencies --   1054.3847              1092.0857              1095.2132
 Red. masses --      1.7187                 1.1339                 1.3662
 Frc consts  --      1.1258                 0.7968                 0.9655
 IR Inten    --      7.6877                 1.4865                 0.0000

                     22                     23                     24
                      B                      A                      A
 Frequencies --   1122.1279              1176.8539              1183.6662
 Red. masses --      1.0601                 6.3667                 1.3594
 Frc consts  --      0.7865                 5.1953                 1.1222
 IR Inten    --      0.5206                 0.0000                 0.0000

                     25                     26                     27
                      B                      B                      A
 Frequencies --   1184.6633              1200.5908              1248.1366
 Red. masses --      2.3326                 2.1148                 2.0975
 Frc consts  --      1.9288                 1.7960                 1.9252
 IR Inten    --     10.1875                 2.9930                15.7793

                     28                     29                     30
                      B                      A                      A
 Frequencies --   1257.6699              1284.8326              1415.3103
 Red. masses --      1.6104                 1.2135                 6.2738
 Frc consts  --      1.5008                 1.1803                 7.4044
 IR Inten    --     13.0933                28.3019                 0.0104

                     31                     32                     33
                      B                      B                      A
 Frequencies --   1431.5717              2688.1034              2756.6379
 Red. masses --      5.8279                 1.0864                 1.0485
 Frc consts  --      7.0370                 4.6252                 4.6942
 IR Inten    --      6.0175                63.6241                66.0921

                     34                     35                     36
                      B                      A                      A
 Frequencies --   2768.7079              2770.7704              2788.1008
 Red. masses --      1.0716                 1.0735                 1.0760
 Frc consts  --      4.8401                 4.8559                 4.9281
 IR Inten    --    128.1362                74.6663                 0.0135

                     37                     38                     39
                      B                      B                      A
 Frequencies --   2788.3923              2790.7242              2801.3878
 Red. masses --      1.0730                 1.0770                 1.0862
 Frc consts  --      4.9154                 4.9419                 5.0221
 IR Inten    --    221.0704               134.2985                75.4528

 - Thermochemistry -
 -------------------
 Temperature   298.150 Kelvin.  Pressure   1.00000 Atm.
 Atom     1 has atomic number  6 and mass  12.00000

 Molecular mass:    92.06260 amu.
 Principal axes and moments of inertia in atomic units:
                           1         2         3
     Eigenvalues --   418.84472 421.31355 561.50735
           X           -0.70612   0.00000   0.70809
           Y            0.70809   0.00000   0.70612
           Z            0.00000   1.00000   0.00000
 This molecule is an asymmetric top.
 Rotational symmetry number  2.
 Rotational temperatures (Kelvin)      0.20679     0.20558     0.15425
 Rotational constants (GHZ):           4.30886     4.28361     3.21410
 Zero-point vibrational energy     316834.6 (Joules/Mol)
                                   75.72528 (Kcal/Mol)
 Warning -- explicit consideration of   2 degrees of freedom as
           vibrations may cause significant error
 Vibrational temperatures:    514.99   674.46   938.57   989.58   994.20
          (Kelvin)           1181.74  1215.55  1234.68  1255.25  1285.89
                             1296.54  1376.29  1378.27  1418.29  1476.33
                             1481.83  1482.69  1488.14  1517.02  1571.27
                             1575.77  1614.49  1693.23  1703.03  1704.46
                             1727.38  1795.79  1809.50  1848.59  2036.31
                             2059.71  3867.58  3966.18  3983.55  3986.52
                             4011.45  4011.87  4015.22  4030.57

 Zero-point correction=                           0.120676 (Hartree/Particle)
 Thermal correction to Energy=                    0.125332
 Thermal correction to Enthalpy=                  0.126276
 Thermal correction to Gibbs Free Energy=         0.093372
 Sum of electronic and zero-point Energies=              0.238759
 Sum of electronic and thermal Energies=                 0.243415
 Sum of electronic and thermal Enthalpies=               0.244360
 Sum of electronic and thermal Free Energies=            0.211456

                     E (Thermal)             CV                S
                      KCal/Mol        Cal/Mol-Kelvin    Cal/Mol-Kelvin
 Total                   78.647             20.102             69.252
 Electronic               0.000              0.000              0.000
 Translational            0.889              2.981             39.472
 Rotational               0.889              2.981             24.719
 Vibrational             76.869             14.140              5.061
 Vibration     1          0.733              1.559              1.131
 Vibration     2          0.826              1.319              0.741

 Optimization completed.
    -- Stationary point found.
 Normal termination of Gaussian 09 at Sun Sep  6 18:32:56 2020.
