 Gaussian 09, Revision D.01,
 Gaussian 09:  ES64L-G09RevD.01 24-Apr-2013

 ----------------------------------------------------------------------
 # opt=(calcfc,qst3) pm6 scrf=(cpcm,solvent=toluene) geom=connectivity
 empiricaldispersion=gd3
 ----------------------------------------------------------------------

 -------------------
 Title Card Required
 -------------------
 Symbolic Z-matrix:
 Charge =  0 Multiplicity = 1

 -------------------
 Title Card Required
 -------------------
 Symbolic Z-matrix:
 Charge =  0 Multiplicity = 1

 -------------------
 Title Card Required
 -------------------
 Symbolic Z-matrix:
 Charge =  0 Multiplicity = 1

 SCF Done:  E(RPM6D3) = -0.224735450272E-01 A.U. after   18 cycles

  Exact polarizability:   0.000   0.000   0.000   0.000   0.000   0.000
 Approx polarizability: 101.373  10.272 121.149 -11.098   1.931  92.162

 SCF Done:  E(RPM6D3) = -0.222992021834E-01 A.U. after   15 cycles
 SCF Done:  E(RPM6D3) = -0.202656538954E-01 A.U. after   16 cycles
 SCF Done:  E(RPM6D3) = -0.172150594202E-01 A.U. after   16 cycles
 SCF Done:  E(RPM6D3) = -0.140530002100E-01 A.U. after   17 cycles
 SCF Done:  E(RPM6D3) = -0.194524407001E-01 A.U. after   17 cycles
 SCF Done:  E(RPM6D3) = -0.218480930517E-01 A.U. after   16 cycles
 SCF Done:  E(RPM6D3) = -0.220727102335E-01 A.U. after   15 cycles
 SCF Done:  E(RPM6D3) = -0.222662048196E-01 A.U. after   16 cycles
 SCF Done:  E(RPM6D3) = -0.223869667201E-01 A.U. after   15 cycles
 SCF Done:  E(RPM6D3) = -0.223563420044E-01 A.U. after   15 cycles
 SCF Done:  E(RPM6D3) = -0.224153044784E-01 A.U. after   15 cycles
 SCF Done:  E(RPM6D3) = -0.224281654666E-01 A.U. after   15 cycles
 SCF Done:  E(RPM6D3) = -0.224345609206E-01 A.U. after   13 cycles
 SCF Done:  E(RPM6D3) = -0.224300589473E-01 A.U. after   15 cycles
 SCF Done:  E(RPM6D3) = -0.224382133885E-01 A.U. after   15 cycles
 SCF Done:  E(RPM6D3) = -0.224404311358E-01 A.U. after   14 cycles
 SCF Done:  E(RPM6D3) = -0.224406189033E-01 A.U. after   11 cycles
 SCF Done:  E(RPM6D3) = -0.224406413341E-01 A.U. after   12 cycles
 SCF Done:  E(RPM6D3) = -0.224407079403E-01 A.U. after   11 cycles
 Optimization completed on the basis of negligible forces.
    -- Stationary point found.

                         Standard orientation:
 ---------------------------------------------------------------------
 Center     Atomic      Atomic             Coordinates (Angstroms)
 Number     Number       Type             X           Y           Z
 ---------------------------------------------------------------------
      1          6           0        0.489886    0.852633   -0.733148
      2          6           0        0.888957    1.657974    0.606043
      3          6           0       -1.419366    1.999892    0.336342
      4          6           0       -0.977739    1.282775   -0.951030
      5          1           0        1.138154    0.650144   -1.591888
      6          1           0       -1.622638    0.767488   -1.640976
      7          6           0       -0.395220    1.741892    1.446396
      8          1           0       -0.346955    2.567079    2.177864
      9          1           0       -0.607003    0.823936    2.025131
     10          6           0        0.765269    2.601896   -0.517280
     11          1           0        1.550888    3.130330   -1.024429
     12          6           0       -0.719661    2.793654   -0.787897
     13          1           0       -1.123098    3.624030   -1.333702
     14          1           0        1.833452    1.415700    1.096470
     15          1           0       -2.459816    2.140607    0.598568
     16          7           0       -0.271599   -1.235542    0.702069
     17          7           0        0.464378   -0.901452   -0.302250
     18          6           0       -1.698444   -1.188173    0.595946
     19          6           0        1.855946   -1.363008   -0.136489
     20          8           0        2.215371   -2.495593   -0.335102
     21          8           0       -2.438140   -0.989527    1.533150
     22          8           0        2.698543   -0.305089    0.083574
     23          8           0       -2.145871   -1.505658   -0.667576
     24          6           0       -3.583379   -1.609644   -0.853597
     25          1           0       -3.665415   -1.879578   -1.912946
     26          1           0       -3.984978   -2.395337   -0.205995
     27          1           0       -4.052797   -0.644331   -0.642673
     28          6           0        4.127807   -0.597307    0.077570
     29          1           0        4.359443   -1.318546    0.868031
     30          1           0        4.422163   -0.977458   -0.905480
     31          1           0        4.565592    0.386329    0.283785
 ---------------------------------------------------------------------

 The electronic state is 1-A.
 Alpha  occ. eigenvalues --   -1.26225  -1.23407  -1.19957  -1.18110  -1.14662
 Alpha  occ. eigenvalues --   -1.12170  -1.03264  -0.99020  -0.95500  -0.95232
 Alpha  occ. eigenvalues --   -0.91078  -0.86481  -0.81394  -0.75574  -0.74979
 Alpha  occ. eigenvalues --   -0.73217  -0.71112  -0.69489  -0.68308  -0.63927
 Alpha  occ. eigenvalues --   -0.63510  -0.62548  -0.61065  -0.60367  -0.58384
 Alpha  occ. eigenvalues --   -0.55878  -0.55741  -0.55350  -0.54077  -0.53414
 Alpha  occ. eigenvalues --   -0.52193  -0.51849  -0.51032  -0.49602  -0.49000
 Alpha  occ. eigenvalues --   -0.48539  -0.47961  -0.45372  -0.44206  -0.43623
 Alpha  occ. eigenvalues --   -0.43519  -0.42787  -0.42045  -0.41978  -0.37534
 Alpha  occ. eigenvalues --   -0.31821
 Alpha virt. eigenvalues --   -0.06867  -0.00189   0.00798   0.02079   0.04057
 Alpha virt. eigenvalues --    0.05234   0.06652   0.07494   0.08324   0.09235
 Alpha virt. eigenvalues --    0.10281   0.10510   0.10578   0.11794   0.11979

 Mulliken charges:
               1
     1  C   -0.211041
     2  C   -0.039242
     3  C   -0.108352
     4  C   -0.154182
     5  H    0.190820
     6  H    0.181940
     7  C   -0.280716
     8  H    0.166131
     9  H    0.184942
    10  C   -0.037465
    11  H    0.171283
    12  C   -0.222316
    13  H    0.179983
    14  H    0.184672
    15  H    0.167818
    16  N   -0.412315
    17  N   -0.030356
    18  C    0.717653
    19  C    0.667874
    20  O   -0.489211
    21  O   -0.536694
    22  O   -0.434313
    23  O   -0.446039
    24  C   -0.174737
    25  H    0.163175
    26  H    0.151982
    27  H    0.147495
    28  C   -0.177476
    29  H    0.157443
    30  H    0.155458
    31  H    0.165785
 Sum of Mulliken charges =   0.00000

 Dipole moment (field-independent basis, Debye):
    X=              2.4508    Y=              7.3947    Z=             -3.0805  Tot=              8.3772
 N-N= 7.393443198748D+02 E-N=-1.356393552682D+03  KE=-5.956531380015D+01
 1\1\GINC-D10S0B1\FTS\RPM6\ZDO\C11H14N2O4\CHMKSH\07-Sep-2020\0\\# opt=(
 calcfc,qst3) pm6 scrf=(cpcm,solvent=toluene) geom=connectivity empiric
 aldispersion=gd3\\Title Card Required\\0,1\C,-0.464125932,0.7666983526
 ,0.7126509069\C,-0.8677805495,1.6757019032,-0.5570104112\C,1.444008563
 1,1.9847992575,-0.2775563195\C,1.0071127312,1.1717122484,0.9531465604\
 H,-1.1077903869,0.501004677,1.5575113099\H,1.6538365066,0.6012722956,1
 .5964107106\C,0.4112765915,1.8187826715,-1.3971820207\H,0.3625046338,2
 .6986246868,-2.0618696202\H,0.6144839962,0.9476860473,-2.0470472661\C,
 -0.7318214637,2.528725148,0.6354697638\H,-1.5113397128,3.0197400768,1.

 Normal termination of Gaussian 09 at Mon Sep  7 02:35:42 2020.
