 Gaussian 09, Revision D.01,
 Gaussian 09:  ES64L-G09RevD.01 24-Apr-2013

 ----------------------------------------------------------------------
 # freq pm6 scrf=(cpcm,solvent=water) geom=connectivity empiricaldisper
 sion=gd3
 ----------------------------------------------------------------------

 -------------------
 Title Card Required
 -------------------
 Symbolic Z-matrix:
 Charge =  0 Multiplicity = 1

                         Standard orientation:
 ---------------------------------------------------------------------
 Center     Atomic      Atomic             Coordinates (Angstroms)
 Number     Number       Type             X           Y           Z
 ---------------------------------------------------------------------
      1          6           0       -2.289847    0.872440   -0.662709
      2          6           0       -1.338141   -0.156827   -1.084085
      3          6           0       -0.046355    0.155005   -0.650755
      4          6           0       -0.121589    1.537307    0.005327
      5          1           0       -1.605190   -0.912196   -1.802364
      6          1           0        0.862060   -0.123992   -1.182849
      7          6           0       -2.038938    3.124418    0.602262
      8          1           0       -1.421734    4.001299    0.339304
      9          1           0       -3.065823    3.303340    0.235933
     10          1           0       -2.073819    3.041200    1.703065
     11          7           0       -1.491565    1.898880   -0.003719
     12          8           0        0.780326    2.224004    0.440033
     13          8           0       -3.492174    0.972415   -0.785551
     14          6           0       -1.113451   -2.657139    0.213851
     15          1           0       -1.208266   -3.621008   -0.296523
     16          6           0        0.187215   -2.193437    0.498731
     17          1           0        1.033540   -2.836864    0.223877
     18          6           0       -2.229756   -1.890122    0.445011
     19          1           0       -2.196234   -1.032766    1.129724
     20          6           0       -3.576075   -2.257625   -0.044954
     21          1           0       -4.134865   -1.374459   -0.404113
     22          1           0       -3.568657   -2.989459   -0.866002
     23          1           0       -4.186983   -2.697332    0.764185
     24          6           0        0.447088   -0.899842    0.958349
     25          1           0       -0.294694   -0.404488    1.607498
     26          6           0        1.864306   -0.518808    1.300776
     27          1           0        2.236048   -1.056672    2.197026
     28          1           0        1.986224    0.571741    1.450939
     29          6           0        3.615489   -0.198340   -0.447319
     30          6           0        3.770587    1.221716   -0.074797
     31          1           0        4.371064    1.344440    0.844713
     32          1           0        4.289165    1.797629   -0.860166
     33          1           0        2.805546    1.740639    0.108051
     34          8           0        2.721463   -1.009086    0.224510
     35          8           0        4.219183   -0.796796   -1.319540
 ---------------------------------------------------------------------

 SCF Done:  E(RPM6D3) = -0.198113896678     A.U. after   19 cycles

 The electronic state is 1-A.
 Alpha  occ. eigenvalues --   -1.23226  -1.18938  -1.18728  -1.15601  -1.13424
 Alpha  occ. eigenvalues --   -1.09295  -1.03948  -1.02244  -0.99300  -0.95828
 Alpha  occ. eigenvalues --   -0.90279  -0.88203  -0.84907  -0.81015  -0.77382
 Alpha  occ. eigenvalues --   -0.76629  -0.73513  -0.69235  -0.66652  -0.64744
 Alpha  occ. eigenvalues --   -0.63665  -0.62866  -0.61703  -0.60236  -0.59615
 Alpha  occ. eigenvalues --   -0.58081  -0.57193  -0.55865  -0.55562  -0.54457
 Alpha  occ. eigenvalues --   -0.54252  -0.52974  -0.52363  -0.52279  -0.51612
 Alpha  occ. eigenvalues --   -0.50794  -0.50565  -0.50320  -0.48990  -0.47885
 Alpha  occ. eigenvalues --   -0.47351  -0.46081  -0.43429  -0.42968  -0.42061
 Alpha  occ. eigenvalues --   -0.40055  -0.39256  -0.37724  -0.33458
 Alpha virt. eigenvalues --   -0.06020  -0.01763   0.01379   0.02371   0.02683
 Alpha virt. eigenvalues --    0.02888   0.03956   0.05966   0.08548   0.09120
 Alpha virt. eigenvalues --    0.10942   0.11514   0.12392   0.12911   0.13015

 Mulliken charges:
               1
     1  C    0.668305
     2  C   -0.514279
     3  C   -0.055283
     4  C    0.584604
     5  H    0.210425
     6  H    0.181296
     7  C   -0.257117
     8  H    0.162693
     9  H    0.169475
    10  H    0.158434
    11  N   -0.491917
    12  O   -0.549591
    13  O   -0.560324
    14  C   -0.336345
    15  H    0.184403
    16  C    0.054939
    17  H    0.158055
    18  C    0.158563
    19  H    0.138975
    20  C   -0.546996
    21  H    0.194750
    22  H    0.183609
    23  H    0.196469
    24  C   -0.283083
    25  H    0.184542
    26  C    0.007805
    27  H    0.157928
    28  H    0.158710
    29  C    0.722969
    30  C   -0.658843
    31  H    0.224177
    32  H    0.218043
    33  H    0.234965
    34  O   -0.492686
    35  O   -0.567672
 Sum of Mulliken charges =   0.00000

 Dipole moment (field-independent basis, Debye):
    X=             -2.7557    Y=             -0.6322    Z=              5.1677  Tot=              5.8906
 N-N= 7.879964786482D+02 E-N=-1.445838493180D+03  KE=-6.374965226658D+01
  Exact polarizability: 260.224   5.117 226.122  10.098 -11.530 122.628
 Approx polarizability: 148.913   2.780 110.894   7.373   4.582  71.994
 D2PCM: C-PCM CHGder 2nd derivatives, FixD1E=F FixD2E=F DoIter=F DoCFld=F I1PDM=0
 Calling FoFJK, ICntrl=    100127 FMM=F ISym2X=0 I1Cent= 0 IOpClX= 0 NMat=1 NMatS=1 NMatT=0.
 Full mass-weighted force constant matrix:
 Low frequencies --- -787.2885   -6.2016   -0.1201   -0.0560    0.0542    4.8082
 Low frequencies ---    7.9581   20.1466   39.8778
 ******    1 imaginary frequencies (negative Signs) ******
 Diagonal vibrational polarizability:

                      1                      2                      3
                      A                      A                      A
 Frequencies --   -787.2884                19.8136                39.8459
 Red. masses --      7.6043                 4.3202                 5.2520
 Frc consts  --      2.7770                 0.0010                 0.0049
 IR Inten    --   2049.8693                14.6133                 0.7325

                      4                      5                      6
                      A                      A                      A
 Frequencies --     55.5094                61.4414                66.8975
 Red. masses --      2.6540                 1.2582                 4.0912
 Frc consts  --      0.0048                 0.0028                 0.0108
 IR Inten    --      3.2923                 1.2064                29.8416

                      7                      8                      9
                      A                      A                      A
 Frequencies --     80.5694                87.7265                93.7925
 Red. masses --      2.8913                 2.3948                 1.4211
 Frc consts  --      0.0111                 0.0109                 0.0074
 IR Inten    --     14.2303                13.2387                 2.7380

                     10                     11                     12
                      A                      A                      A
 Frequencies --    102.8097               112.5968               129.8270
 Red. masses --      4.5720                 1.3099                 4.0995
 Frc consts  --      0.0285                 0.0098                 0.0407
 IR Inten    --      3.7366                 7.9980                 6.1568

                     13                     14                     15
                      A                      A                      A
 Frequencies --    156.4399               177.6261               191.7909
 Red. masses --      7.2053                 5.9152                 5.5877
 Frc consts  --      0.1039                 0.1100                 0.1211
 IR Inten    --     11.6948                 4.2348                 7.0916

                     16                     17                     18
                      A                      A                      A
 Frequencies --    229.7818               235.6559               257.6927
 Red. masses --      3.8282                 3.7212                 3.4134
 Frc consts  --      0.1191                 0.1218                 0.1336
 IR Inten    --      0.1233                 2.8272                11.3321

                     19                     20                     21
                      A                      A                      A
 Frequencies --    278.7786               311.2635               342.1017
 Red. masses --      2.5513                 2.3045                 2.6635
 Frc consts  --      0.1168                 0.1315                 0.1837
 IR Inten    --      9.2855                30.3999                27.4036

                     22                     23                     24
                      A                      A                      A
 Frequencies --    361.1856               395.1733               407.5375
 Red. masses --      9.4642                 2.7971                 3.8044
 Frc consts  --      0.7274                 0.2574                 0.3723
 IR Inten    --     56.0337                20.5182                45.8583

                     25                     26                     27
                      A                      A                      A
 Frequencies --    435.7327               516.2681               538.4310
 Red. masses --      3.8103                 4.7445                 3.1514
 Frc consts  --      0.4262                 0.7451                 0.5383
 IR Inten    --      3.7421                10.8468                 6.7897

                     28                     29                     30
                      A                      A                      A
 Frequencies --    545.3382               554.7768               561.4196
 Red. masses --      8.6305                 5.6399                 4.8765
 Frc consts  --      1.5122                 1.0227                 0.9056
 IR Inten    --      5.9606               119.4732                47.2552

                     31                     32                     33
                      A                      A                      A
 Frequencies --    627.6921               644.9809               676.2596
 Red. masses --      6.8693                 6.5372                 4.3570
 Frc consts  --      1.5946                 1.6023                 1.1740
 IR Inten    --     57.6717                48.9484                17.2894

                     34                     35                     36
                      A                      A                      A
 Frequencies --    696.0608               815.1609               842.0864
 Red. masses --      4.3673                 1.3823                 4.0381
 Frc consts  --      1.2467                 0.5412                 1.6871
 IR Inten    --     32.0180                37.4798                32.8715

                     37                     38                     39
                      A                      A                      A
 Frequencies --    846.3391               870.9394               916.4835
 Red. masses --      1.6374                 2.1483                 1.2870
 Frc consts  --      0.6910                 0.9601                 0.6369
 IR Inten    --     88.2907                38.9744               585.5680

                     40                     41                     42
                      A                      A                      A
 Frequencies --    930.3735               940.6871               957.2426
 Red. masses --      1.2689                 1.6776                 1.9109
 Frc consts  --      0.6471                 0.8746                 1.0317
 IR Inten    --    285.7470                54.8711               291.9021

                     43                     44                     45
                      A                      A                      A
 Frequencies --    968.1332               984.8739               994.5863
 Red. masses --      1.4191                 1.4851                 1.6221
 Frc consts  --      0.7837                 0.8487                 0.9454
 IR Inten    --     30.9890                20.5451                22.6538

                     46                     47                     48
                      A                      A                      A
 Frequencies --   1013.5582              1025.6461              1042.7653
 Red. masses --      1.6415                 1.7644                 1.9905
 Frc consts  --      0.9936                 1.0936                 1.2752
 IR Inten    --    200.1913               197.8510               127.2899

                     49                     50                     51
                      A                      A                      A
 Frequencies --   1055.9338              1057.9179              1071.2126
 Red. masses --      1.3251                 1.5007                 1.5057
 Frc consts  --      0.8705                 0.9896                 1.0180
 IR Inten    --     20.7906                77.2510               134.4658

                     52                     53                     54
                      A                      A                      A
 Frequencies --   1076.0559              1100.5211              1137.0738
 Red. masses --      2.2146                 2.4276                 1.2561
 Frc consts  --      1.5108                 1.7323                 0.9569
 IR Inten    --    144.9384               332.7270                35.1030

                     55                     56                     57
                      A                      A                      A
 Frequencies --   1162.3297              1166.1132              1173.7038
 Red. masses --      1.0649                 1.7703                 1.0645
 Frc consts  --      0.8476                 1.4184                 0.8640
 IR Inten    --     94.4637               254.0209                89.7149

                     58                     59                     60
                      A                      A                      A
 Frequencies --   1180.5812              1187.1811              1202.2372
 Red. masses --      1.5807                 1.3061                 1.7864
 Frc consts  --      1.2980                 1.0846                 1.5213
 IR Inten    --    154.7735               201.6120                39.0718

                     61                     62                     63
                      A                      A                      A
 Frequencies --   1205.7900              1219.5576              1221.9836
 Red. masses --      1.0722                 1.4283                 1.0756
 Frc consts  --      0.9185                 1.2516                 0.9463
 IR Inten    --    118.6130                76.4056                32.5557

                     64                     65                     66
                      A                      A                      A
 Frequencies --   1231.1403              1235.3325              1251.5353
 Red. masses --      1.4472                 1.4118                 1.1569
 Frc consts  --      1.2924                 1.2694                 1.0677
 IR Inten    --    119.5339               501.2592                17.3767

                     67                     68                     69
                      A                      A                      A
 Frequencies --   1262.1039              1265.3035              1267.9294
 Red. masses --      1.6680                 1.4743                 1.5641
 Frc consts  --      1.5654                 1.3906                 1.4815
 IR Inten    --    161.6328                82.4362               259.8118

                     70                     71                     72
                      A                      A                      A
 Frequencies --   1279.6020              1281.6572              1306.9939
 Red. masses --      1.2535                 1.3429                 1.3927
 Frc consts  --      1.2093                 1.2997                 1.4017
 IR Inten    --    234.8730                11.9687               285.3243

                     73                     74                     75
                      A                      A                      A
 Frequencies --   1312.8372              1318.7100              1381.1223
 Red. masses --      1.6090                 1.2640                 4.9893
 Frc consts  --      1.6339                 1.2950                 5.6073
 IR Inten    --    103.4611                 7.2990                11.5674

                     76                     77                     78
                      A                      A                      A
 Frequencies --   1394.2961              1435.8429              1576.2545
 Red. masses --      4.9808                 5.6443                 9.0817
 Frc consts  --      5.7050                 6.8560                13.2944
 IR Inten    --    583.8822               424.3960               352.3354

                     79                     80                     81
                      A                      A                      A
 Frequencies --   1626.4927              1724.5373              1754.5844
 Red. masses --      7.7233                12.9103                11.7611
 Frc consts  --     12.0381                22.6221                21.3328
 IR Inten    --    238.2197              2751.2459               650.7387

                     82                     83                     84
                      A                      A                      A
 Frequencies --   1821.4785              2616.2480              2625.7360
 Red. masses --     12.7098                 1.0855                 1.0881
 Frc consts  --     24.8449                 4.3774                 4.4200
 IR Inten    --    295.8757               363.0807               114.5729

                     85                     86                     87
                      A                      A                      A
 Frequencies --   2654.6747              2658.1079              2659.8559
 Red. masses --      1.0837                 1.0861                 1.0854
 Frc consts  --      4.4999                 4.5212                 4.5242
 IR Inten    --    158.9870                95.9344               213.0834

                     88                     89                     90
                      A                      A                      A
 Frequencies --   2662.4141              2671.7982              2686.2084
 Red. masses --      1.0866                 1.0821                 1.0679
 Frc consts  --      4.5380                 4.5511                 4.5399
 IR Inten    --    114.2785                89.0962               115.3353

                     91                     92                     93
                      A                      A                      A
 Frequencies --   2696.1277              2702.2711              2716.8095
 Red. masses --      1.0468                 1.0708                 1.0758
 Frc consts  --      4.4832                 4.6069                 4.6785
 IR Inten    --    102.4522                90.5994               121.2686

                     94                     95                     96
                      A                      A                      A
 Frequencies --   2720.0011              2742.2852              2758.4029
 Red. masses --      1.0752                 1.0732                 1.0289
 Frc consts  --      4.6866                 4.7551                 4.6125
 IR Inten    --    216.9786               286.8334                69.0231

                     97                     98                     99
                      A                      A                      A
 Frequencies --   2765.7237              2767.8492              2774.4987
 Red. masses --      1.0731                 1.0348                 1.0355
 Frc consts  --      4.8361                 4.6707                 4.6963
 IR Inten    --    204.0737               115.2158               197.0056

 - Thermochemistry -
 -------------------
 Temperature   298.150 Kelvin.  Pressure   1.00000 Atm.
 Atom     1 has atomic number  6 and mass  12.00000

 Molecular mass:   251.11576 amu.
 Principal axes and moments of inertia in atomic units:
                           1         2         3
     Eigenvalues --  2938.226835839.956007837.33864
           X            0.99941   0.03408   0.00337
           Y           -0.03412   0.99934   0.01270
           Z           -0.00293  -0.01281   0.99991
 This molecule is an asymmetric top.
 Rotational symmetry number  1.
 Warning -- assumption of classical behavior for rotation
           may cause significant error
 Rotational temperatures (Kelvin)      0.02948     0.01483     0.01105
 Rotational constants (GHZ):           0.61423     0.30903     0.23027
    1 imaginary frequencies ignored.
 Zero-point vibrational energy     675690.6 (Joules/Mol)
                                  161.49393 (Kcal/Mol)
 Warning -- explicit consideration of  29 degrees of freedom as
           vibrations may cause significant error
 Vibrational temperatures:     28.51    57.33    79.87    88.40    96.25
          (Kelvin)            115.92   126.22   134.95   147.92   162.00
                              186.79   225.08   255.56   275.94   330.60
                              339.06   370.76   401.10   447.84   492.21
                              519.66   568.57   586.35   626.92   742.79
                              774.68   784.62   798.20   807.76   903.11
                              927.98   972.99  1001.48  1172.83  1211.57
                             1217.69  1253.09  1318.61  1338.60  1353.44
                             1377.26  1392.93  1417.01  1430.99  1458.28
                             1475.67  1500.30  1519.25  1522.11  1541.23
                             1548.20  1583.40  1635.99  1672.33  1677.77
                             1688.70  1698.59  1708.09  1729.75  1734.86
                             1754.67  1758.16  1771.33  1777.37  1800.68
                             1815.88  1820.49  1824.27  1841.06  1844.02
                             1880.47  1888.88  1897.33  1987.12  2006.08
                             2065.86  2267.88  2340.16  2481.22  2524.45
                             2620.70  3764.19  3777.84  3819.48  3824.42
                             3826.93  3830.62  3844.12  3864.85  3879.12
                             3887.96  3908.88  3913.47  3945.53  3968.72
                             3979.25  3982.31  3991.88

 Zero-point correction=                           0.257357 (Hartree/Particle)
 Thermal correction to Energy=                    0.277196
 Thermal correction to Enthalpy=                  0.278140
 Thermal correction to Gibbs Free Energy=         0.207183
 Sum of electronic and zero-point Energies=              0.059243
 Sum of electronic and thermal Energies=                 0.079082
 Sum of electronic and thermal Enthalpies=               0.080026
 Sum of electronic and thermal Free Energies=            0.009069

                     E (Thermal)             CV                S
                      KCal/Mol        Cal/Mol-Kelvin    Cal/Mol-Kelvin
 Total                  173.943             71.060            149.343
 Electronic               0.000              0.000              0.000
 Translational            0.889              2.981             42.463
 Rotational               0.889              2.981             33.264
 Vibrational            172.166             65.098             73.617
 Vibration     1          0.593              1.986              6.653
 Vibration     2          0.594              1.981              5.267
 Vibration     3          0.596              1.975              4.611
 Vibration     4          0.597              1.973              4.410
 Vibration     5          0.598              1.970              4.243
 Vibration     6          0.600              1.962              3.877
 Vibration     7          0.601              1.958              3.710
 Vibration     8          0.603              1.954              3.579
 Vibration     9          0.605              1.947              3.400
 Vibration    10          0.607              1.939              3.224
 Vibration    11          0.612              1.923              2.949
 Vibration    12          0.620              1.895              2.592
 Vibration    13          0.628              1.870              2.353
 Vibration    14          0.634              1.851              2.210
 Vibration    15          0.652              1.796              1.881
 Vibration    16          0.655              1.786              1.835
 Vibration    17          0.667              1.750              1.677
 Vibration    18          0.679              1.713              1.541
 Vibration    19          0.700              1.652              1.356
 Vibration    20          0.721              1.591              1.202
 Vibration    21          0.735              1.552              1.117
 Vibration    22          0.762              1.480              0.981
 Vibration    23          0.772              1.454              0.935
 Vibration    24          0.796              1.392              0.840
 Vibration    25          0.871              1.214              0.619
 Vibration    26          0.893              1.165              0.569
 Vibration    27          0.901              1.150              0.554
 Vibration    28          0.910              1.129              0.534
 Vibration    29          0.917              1.115              0.521

 Normal termination of Gaussian 09 at Wed Aug 12 16:54:11 2020.
