 Gaussian 09, Revision D.01,
 Gaussian 09:  ES64L-G09RevD.01 24-Apr-2013

 ----------------------------------------------------------------------
 # opt freq pm6 scrf=(cpcm,solvent=water) geom=connectivity empiricaldi
 spersion=gd3
 ----------------------------------------------------------------------

 -------------------
 Title Card Required
 -------------------
 Symbolic Z-matrix:
 Charge =  0 Multiplicity = 1

 SCF Done:  E(RPM6D3) = -0.311903429635     A.U. after   15 cycles
 SCF Done:  E(RPM6D3) = -0.312016452116     A.U. after   12 cycles
 SCF Done:  E(RPM6D3) = -0.311960338189     A.U. after   12 cycles
 SCF Done:  E(RPM6D3) = -0.312069704559     A.U. after   12 cycles
 SCF Done:  E(RPM6D3) = -0.312074461577     A.U. after   11 cycles
 SCF Done:  E(RPM6D3) = -0.312089685932     A.U. after   12 cycles
 SCF Done:  E(RPM6D3) = -0.312093897451     A.U. after   12 cycles
 SCF Done:  E(RPM6D3) = -0.312098211992     A.U. after   10 cycles
 SCF Done:  E(RPM6D3) = -0.312099023316     A.U. after    9 cycles
 SCF Done:  E(RPM6D3) = -0.312099259302     A.U. after   10 cycles
 SCF Done:  E(RPM6D3) = -0.312120930069     A.U. after    9 cycles
 SCF Done:  E(RPM6D3) = -0.312121184939     A.U. after    9 cycles
 SCF Done:  E(RPM6D3) = -0.312121508877     A.U. after    9 cycles
 SCF Done:  E(RPM6D3) = -0.312121764420     A.U. after    9 cycles
 SCF Done:  E(RPM6D3) = -0.312122091025     A.U. after    9 cycles
 SCF Done:  E(RPM6D3) = -0.312122369474     A.U. after    9 cycles
 SCF Done:  E(RPM6D3) = -0.312122532618     A.U. after    9 cycles
 SCF Done:  E(RPM6D3) = -0.312122642489     A.U. after    9 cycles
 SCF Done:  E(RPM6D3) = -0.312122630990     A.U. after    9 cycles
 Optimization completed.
    -- Stationary point found.
 Normal termination of Gaussian 09 at Wed Aug 12 16:42:59 2020.

 -------------------------------------------------------------
 #N Geom=AllCheck Guess=TCheck SCRF=Check GenChk RPM6/ZDO Freq
 -------------------------------------------------------------

 Structure from the checkpoint file:  "water_cyclohexene_pm6_cpcmtoluene_2.chk"
 -------------------
 Title Card Required
 -------------------
 Charge =  0 Multiplicity = 1

                         Standard orientation:
 ---------------------------------------------------------------------
 Center     Atomic      Atomic             Coordinates (Angstroms)
 Number     Number       Type             X           Y           Z
 ---------------------------------------------------------------------
      1          6           0       -2.869852    0.261704   -0.142270
      2          6           0       -1.570931    0.869632   -0.679373
      3          6           0       -0.574869   -0.316966   -0.786629
      4          6           0       -1.344526   -1.545346   -0.285225
      5          1           0       -1.777101    1.260203   -1.711537
      6          1           0       -0.338316   -0.488411   -1.871196
      7          6           0       -3.697748   -2.057707    0.560006
      8          1           0       -3.375597   -2.525025    1.507434
      9          1           0       -4.641262   -1.514224    0.746778
     10          1           0       -3.899967   -2.857710   -0.174062
     11          7           0       -2.662473   -1.134608    0.053591
     12          8           0       -0.947777   -2.685069   -0.183243
     13          8           0       -3.921320    0.815229    0.090196
     14          6           0        0.743688   -0.182791    0.003694
     15          1           0        1.109982   -1.219000    0.250859
     16          6           0       -1.143877    2.058055    0.217922
     17          1           0       -2.081677    2.533803    0.616869
     18          6           0       -0.301700    1.601814    1.380398
     19          1           0       -0.431221    2.168489    2.301967
     20          6           0        0.557333    0.585438    1.283322
     21          1           0        1.181807    0.262600    2.114948
     22          6           0       -0.392392    3.119090   -0.591772
     23          1           0       -1.000657    3.512762   -1.414427
     24          1           0       -0.108150    3.970639    0.039332
     25          1           0        0.537989    2.721475   -1.031412
     26          6           0        1.812225    0.486845   -0.879880
     27          1           0        1.950149   -0.030236   -1.844575
     28          1           0        1.611580    1.571149   -1.046237
     29          6           0        3.815322   -0.626075   -0.038254
     30          6           0        5.059190   -0.334560    0.710599
     31          1           0        5.108752   -0.917433    1.647675
     32          1           0        5.955004   -0.602203    0.122685
     33          1           0        5.160703    0.728702    0.987859
     34          8           0        3.421935   -1.681599   -0.492883
     35          8           0        3.087676    0.532924   -0.180735
 ---------------------------------------------------------------------

 SCF Done:  E(RPM6D3) = -0.312122630994     A.U. after    2 cycles

 The electronic state is 1-A.
 Alpha  occ. eigenvalues --   -1.23803  -1.19725  -1.18940  -1.15999  -1.13363
 Alpha  occ. eigenvalues --   -1.11307  -1.03606  -1.02209  -0.99806  -0.94915
 Alpha  occ. eigenvalues --   -0.90434  -0.89296  -0.84239  -0.79980  -0.79378
 Alpha  occ. eigenvalues --   -0.76472  -0.73588  -0.67299  -0.66096  -0.64624
 Alpha  occ. eigenvalues --   -0.63557  -0.62678  -0.61705  -0.61060  -0.59811
 Alpha  occ. eigenvalues --   -0.57927  -0.56698  -0.56192  -0.54730  -0.54611
 Alpha  occ. eigenvalues --   -0.54395  -0.53239  -0.52471  -0.51741  -0.51246
 Alpha  occ. eigenvalues --   -0.50956  -0.50301  -0.49851  -0.48633  -0.48066
 Alpha  occ. eigenvalues --   -0.45917  -0.44473  -0.43785  -0.43008  -0.42501
 Alpha  occ. eigenvalues --   -0.41962  -0.39995  -0.39421  -0.37867
 Alpha virt. eigenvalues --   -0.01405   0.01458   0.01966   0.02331   0.02867
 Alpha virt. eigenvalues --    0.03621   0.07698   0.07920   0.09420   0.10001
 Alpha virt. eigenvalues --    0.11231   0.11945   0.12113   0.12189   0.12663

 Mulliken charges:
               1
     1  C    0.610380
     2  C   -0.238698
     3  C   -0.225797
     4  C    0.611979
     5  H    0.195479
     6  H    0.193356
     7  C   -0.265624
     8  H    0.165141
     9  H    0.173962
    10  H    0.164929
    11  N   -0.458726
    12  O   -0.541367
    13  O   -0.538374
    14  C   -0.111010
    15  H    0.166596
    16  C   -0.015478
    17  H    0.142482
    18  C   -0.172517
    19  H    0.157399
    20  C   -0.169141
    21  H    0.157032
    22  C   -0.488766
    23  H    0.163333
    24  H    0.165149
    25  H    0.160193
    26  C   -0.018595
    27  H    0.146906
    28  H    0.166796
    29  C    0.707115
    30  C   -0.600981
    31  H    0.217894
    32  H    0.217411
    33  H    0.214022
    34  O   -0.589814
    35  O   -0.462666
 Sum of Mulliken charges =   0.00000

 Dipole moment (field-independent basis, Debye):
    X=              2.4790    Y=              4.4941    Z=             -0.2230  Tot=              5.1374
 N-N= 7.886611477819D+02 E-N=-1.447394185838D+03  KE=-6.389508505192D+01
  Exact polarizability: 177.040 -47.983 195.304  -1.971   4.972  90.570
 Approx polarizability:  96.355 -26.572 112.566  -0.676   3.236  54.547
 D2PCM: C-PCM CHGder 2nd derivatives, FixD1E=F FixD2E=F DoIter=F DoCFld=F I1PDM=0
 Calling FoFJK, ICntrl=    100127 FMM=F ISym2X=0 I1Cent= 0 IOpClX= 0 NMat=1 NMatS=1 NMatT=0.
 Full mass-weighted force constant matrix:
 Low frequencies ---   -9.7316   -4.4802   -0.0205    0.0134    0.0389    6.4875
 Low frequencies ---   20.1086   26.6143   36.0112
 Diagonal vibrational polarizability:
      122.2047931     110.2248165     298.1104532

                      1                      2                      3
                      A                      A                      A
 Frequencies --     20.0255                26.4617                35.1490
 Red. masses --      5.9895                 4.7619                 1.1062
 Frc consts  --      0.0014                 0.0020                 0.0008
 IR Inten    --      2.0308                 0.0525                 1.6148

                      4                      5                      6
                      A                      A                      A
 Frequencies --     38.8288                58.7540                67.9841
 Red. masses --      4.2056                 1.2006                 2.8335
 Frc consts  --      0.0037                 0.0024                 0.0077
 IR Inten    --      3.1166                 5.8376                 4.0291

                      7                      8                      9
                      A                      A                      A
 Frequencies --     83.9385               125.6721               144.0719
 Red. masses --      3.5860                 5.9880                 5.2456
 Frc consts  --      0.0149                 0.0557                 0.0642
 IR Inten    --      5.5606                 4.6012                 8.7171

                     10                     11                     12
                      A                      A                      A
 Frequencies --    164.0346               175.6815               190.3740
 Red. masses --      1.2093                 2.6605                 4.0849
 Frc consts  --      0.0192                 0.0484                 0.0872
 IR Inten    --      1.2128                 1.4928                 5.7312

                     13                     14                     15
                      A                      A                      A
 Frequencies --    219.0678               231.4886               253.8576
 Red. masses --      4.7838                 4.6127                 3.0866
 Frc consts  --      0.1353                 0.1456                 0.1172
 IR Inten    --      3.4877                 9.7281                 2.0743

                     16                     17                     18
                      A                      A                      A
 Frequencies --    256.7269               286.5286               304.1992
 Red. masses --      3.0797                 3.5892                 4.0177
 Frc consts  --      0.1196                 0.1736                 0.2190
 IR Inten    --     23.8335                17.9565                 7.2006

                     19                     20                     21
                      A                      A                      A
 Frequencies --    361.9718               395.8047               410.3669
 Red. masses --      5.5155                 4.5386                 3.8138
 Frc consts  --      0.4258                 0.4189                 0.3784
 IR Inten    --     49.4385                 0.7628                29.1753

                     22                     23                     24
                      A                      A                      A
 Frequencies --    445.5428               513.2651               519.0897
 Red. masses --      4.3211                 3.0081                 4.8690
 Frc consts  --      0.5054                 0.4669                 0.7730
 IR Inten    --     16.7691                 2.9322                 7.0678

                     25                     26                     27
                      A                      A                      A
 Frequencies --    550.9011               557.4917               567.1456
 Red. masses --      3.5830                 4.1603                 5.8023
 Frc consts  --      0.6407                 0.7618                 1.0996
 IR Inten    --     18.2574                13.7343                 1.0118

                     28                     29                     30
                      A                      A                      A
 Frequencies --    603.2006               618.1881               658.9604
 Red. masses --      5.8792                 5.6710                 5.4875
 Frc consts  --      1.2604                 1.2769                 1.4039
 IR Inten    --     11.0716                56.5680                75.6693

                     31                     32                     33
                      A                      A                      A
 Frequencies --    724.7251               813.6056               816.0235
 Red. masses --      5.8055                 2.6189                 1.8894
 Frc consts  --      1.7965                 1.0214                 0.7413
 IR Inten    --      9.7005                34.7780                71.1645

                     34                     35                     36
                      A                      A                      A
 Frequencies --    837.5807               887.8027               907.6833
 Red. masses --      3.1190                 2.5532                 2.8945
 Frc consts  --      1.2892                 1.1857                 1.4050
 IR Inten    --     31.2314                23.0177                 9.9960

                     37                     38                     39
                      A                      A                      A
 Frequencies --    927.6636               953.5114               964.6206
 Red. masses --      2.2765                 1.5751                 1.7183
 Frc consts  --      1.1542                 0.8437                 0.9420
 IR Inten    --     21.5593                22.3552                12.0563

                     40                     41                     42
                      A                      A                      A
 Frequencies --    975.3421               993.6342              1014.4266
 Red. masses --      1.8019                 1.7285                 1.7892
 Frc consts  --      1.0099                 1.0055                 1.0848
 IR Inten    --    200.9002               205.0923               154.3754

                     43                     44                     45
                      A                      A                      A
 Frequencies --   1016.1452              1043.7376              1056.3314
 Red. masses --      1.6197                 1.6838                 1.3548
 Frc consts  --      0.9853                 1.0808                 0.8907
 IR Inten    --    126.6949                 6.7314                19.2725

                     46                     47                     48
                      A                      A                      A
 Frequencies --   1058.9971              1072.4438              1091.0523
 Red. masses --      1.5649                 3.0128                 3.1087
 Frc consts  --      1.0340                 2.0416                 2.1804
 IR Inten    --     14.0234                70.9948               389.0793

                     49                     50                     51
                      A                      A                      A
 Frequencies --   1101.9481              1125.6718              1140.0533
 Red. masses --      3.3373                 2.2975                 2.0039
 Frc consts  --      2.3876                 1.7152                 1.5345
 IR Inten    --    173.8057               127.3867                30.8043

                     52                     53                     54
                      A                      A                      A
 Frequencies --   1150.5341              1157.7583              1163.8667
 Red. masses --      1.4351                 1.2396                 1.4922
 Frc consts  --      1.1193                 0.9790                 1.1909
 IR Inten    --      6.5461                18.5501                44.8136

                     55                     56                     57
                      A                      A                      A
 Frequencies --   1168.1007              1169.9328              1183.0922
 Red. masses --      1.1480                 1.3645                 1.2278
 Frc consts  --      0.9229                 1.1004                 1.0125
 IR Inten    --    167.3230                14.3725                42.0158

                     58                     59                     60
                      A                      A                      A
 Frequencies --   1183.2005              1196.3821              1216.2018
 Red. masses --      1.0732                 1.4338                 1.0414
 Frc consts  --      0.8852                 1.2092                 0.9076
 IR Inten    --     95.5685                18.8149                55.6672

                     61                     62                     63
                      A                      A                      A
 Frequencies --   1218.9191              1220.0186              1234.1314
 Red. masses --      2.2098                 1.1736                 1.3878
 Frc consts  --      1.9344                 1.0292                 1.2453
 IR Inten    --    471.9073                 1.9516                91.0474

                     64                     65                     66
                      A                      A                      A
 Frequencies --   1237.2452              1247.7122              1252.8701
 Red. masses --      1.1200                 1.4596                 1.3223
 Frc consts  --      1.0101                 1.3388                 1.2229
 IR Inten    --     94.1724                38.6075                17.0917

                     67                     68                     69
                      A                      A                      A
 Frequencies --   1255.2595              1268.9796              1275.1227
 Red. masses --      1.9674                 1.5325                 1.5686
 Frc consts  --      1.8265                 1.4540                 1.5027
 IR Inten    --     28.5186                19.1719                20.9293

                     70                     71                     72
                      A                      A                      A
 Frequencies --   1282.3827              1284.5892              1285.1754
 Red. masses --      1.4502                 1.6175                 2.0934
 Frc consts  --      1.4052                 1.5726                 2.0372
 IR Inten    --    152.4899               251.2911               725.4294

                     73                     74                     75
                      A                      A                      A
 Frequencies --   1301.4958              1314.0660              1322.3963
 Red. masses --      1.4864                 1.2538                 1.4674
 Frc consts  --      1.4834                 1.2756                 1.5119
 IR Inten    --     72.1969                 1.5250                64.8650

                     76                     77                     78
                      A                      A                      A
 Frequencies --   1333.4465              1344.4869              1434.5097
 Red. masses --      1.5340                 2.1627                 5.6673
 Frc consts  --      1.6071                 2.3033                 6.8713
 IR Inten    --     29.7220                12.2091               338.1115

                     79                     80                     81
                      A                      A                      A
 Frequencies --   1722.8027              1767.1873              1802.3812
 Red. masses --     13.0917                11.5592                 9.3017
 Frc consts  --     22.8938                21.2688                17.8036
 IR Inten    --   2192.3833               775.5901                 1.2897

                     82                     83                     84
                      A                      A                      A
 Frequencies --   1824.1507              2595.4590              2655.4752
 Red. masses --     12.8068                 1.0794                 1.0698
 Frc consts  --     25.1080                 4.2840                 4.4448
 IR Inten    --     44.2884                39.2130                12.2626

                     85                     86                     87
                      A                      A                      A
 Frequencies --   2656.7195              2658.3574              2658.6983
 Red. masses --      1.0653                 1.0848                 1.0868
 Frc consts  --      4.4301                 4.5168                 4.5262
 IR Inten    --     70.9569               210.8910               108.4925

                     88                     89                     90
                      A                      A                      A
 Frequencies --   2659.3980              2662.1235              2665.5781
 Red. masses --      1.0864                 1.0727                 1.0864
 Frc consts  --      4.5270                 4.4792                 4.5482
 IR Inten    --    102.5398               166.5954               183.4619

                     91                     92                     93
                      A                      A                      A
 Frequencies --   2670.8332              2673.0071              2686.7830
 Red. masses --      1.0659                 1.0753                 1.0875
 Frc consts  --      4.4799                 4.5266                 4.6253
 IR Inten    --    290.2149               201.2524                99.8955

                     94                     95                     96
                      A                      A                      A
 Frequencies --   2699.9104              2736.5541              2751.9918
 Red. masses --      1.0528                 1.0693                 1.0786
 Frc consts  --      4.5216                 4.7182                 4.8127
 IR Inten    --     83.2494               168.8008               121.6782

                     97                     98                     99
                      A                      A                      A
 Frequencies --   2758.0446              2775.9817              2777.7712
 Red. masses --      1.0281                 1.0323                 1.0321
 Frc consts  --      4.6076                 4.6869                 4.6921
 IR Inten    --     51.3386               136.9422                32.3994

 - Thermochemistry -
 -------------------
 Temperature   298.150 Kelvin.  Pressure   1.00000 Atm.
 Atom     1 has atomic number  6 and mass  12.00000

 Molecular mass:   251.11576 amu.
 Principal axes and moments of inertia in atomic units:
                           1         2         3
     Eigenvalues --  2442.894526571.412268181.20223
           X            0.99993   0.01124   0.00363
           Y           -0.01117   0.99975  -0.01949
           Z           -0.00385   0.01945   0.99980
 This molecule is an asymmetric top.
 Rotational symmetry number  1.
 Warning -- assumption of classical behavior for rotation
           may cause significant error
 Rotational temperatures (Kelvin)      0.03546     0.01318     0.01059
 Rotational constants (GHZ):           0.73877     0.27464     0.22060
 Zero-point vibrational energy     693647.8 (Joules/Mol)
                                  165.78580 (Kcal/Mol)
 Warning -- explicit consideration of  29 degrees of freedom as
           vibrations may cause significant error
 Vibrational temperatures:     28.81    38.07    50.57    55.87    84.53
          (Kelvin)             97.81   120.77   180.81   207.29   236.01
                              252.77   273.91   315.19   333.06   365.24
                              369.37   412.25   437.67   520.80   569.47
                              590.43   641.04   738.47   746.85   792.62
                              802.11   816.00   867.87   889.43   948.10
                             1042.72  1170.60  1174.07  1205.09  1277.35
                             1305.95  1334.70  1371.89  1387.87  1403.30
                             1429.62  1459.53  1462.00  1501.70  1519.82
                             1523.66  1543.01  1569.78  1585.46  1619.59
                             1640.28  1655.36  1665.75  1674.54  1680.63
                             1683.27  1702.20  1702.36  1721.32  1749.84
                             1753.75  1755.33  1775.64  1780.12  1795.18
                             1802.60  1806.04  1825.78  1834.61  1845.06
                             1848.23  1849.08  1872.56  1890.65  1902.63
                             1918.53  1934.41  2063.94  2478.73  2542.59
                             2593.22  2624.54  3734.28  3820.63  3822.42
                             3824.78  3825.27  3826.28  3830.20  3835.17
                             3842.73  3845.86  3865.68  3884.56  3937.29
                             3959.50  3968.21  3994.01  3996.59

 Zero-point correction=                           0.264196 (Hartree/Particle)
 Thermal correction to Energy=                    0.282870
 Thermal correction to Enthalpy=                  0.283814
 Thermal correction to Gibbs Free Energy=         0.214475
 Sum of electronic and zero-point Energies=             -0.047926
 Sum of electronic and thermal Energies=                -0.029253
 Sum of electronic and thermal Enthalpies=              -0.028309
 Sum of electronic and thermal Free Energies=           -0.097648

                     E (Thermal)             CV                S
                      KCal/Mol        Cal/Mol-Kelvin    Cal/Mol-Kelvin
 Total                  177.503             68.050            145.937
 Electronic               0.000              0.000              0.000
 Translational            0.889              2.981             42.463
 Rotational               0.889              2.981             33.240
 Vibrational            175.726             62.089             70.234
 Vibration     1          0.593              1.986              6.632
 Vibration     2          0.593              1.985              6.078
 Vibration     3          0.594              1.982              5.515
 Vibration     4          0.594              1.981              5.318
 Vibration     5          0.596              1.974              4.499
 Vibration     6          0.598              1.969              4.211
 Vibration     7          0.601              1.960              3.797
 Vibration     8          0.611              1.927              3.011
 Vibration     9          0.616              1.909              2.749
 Vibration    10          0.623              1.887              2.503
 Vibration    11          0.628              1.872              2.374
 Vibration    12          0.634              1.853              2.224
 Vibration    13          0.647              1.812              1.967
 Vibration    14          0.653              1.793              1.867
 Vibration    15          0.665              1.756              1.704
 Vibration    16          0.666              1.751              1.684
 Vibration    17          0.684              1.699              1.494
 Vibration    18          0.695              1.666              1.394
 Vibration    19          0.736              1.551              1.114
 Vibration    20          0.763              1.479              0.978
 Vibration    21          0.775              1.448              0.925
 Vibration    22          0.805              1.371              0.809
 Vibration    23          0.868              1.221              0.626
 Vibration    24          0.874              1.208              0.612
 Vibration    25          0.906              1.138              0.542
 Vibration    26          0.913              1.123              0.529
 Vibration    27          0.923              1.102              0.510
 Vibration    28          0.962              1.025              0.444
 Vibration    29          0.978              0.993              0.419

 Normal termination of Gaussian 09 at Wed Aug 12 16:43:11 2020.
