 Gaussian 09, Revision D.01,
 Gaussian 09:  ES64L-G09RevD.01 24-Apr-2013

 ----------------------------------------------------------------------
 # opt freq pm6 scrf=(cpcm,solvent=water) geom=connectivity empiricaldi
 spersion=gd3
 ----------------------------------------------------------------------

 -------------------
 Title Card Required
 -------------------
 Symbolic Z-matrix:
 Charge =  0 Multiplicity = 1

 SCF Done:  E(RPM6D3) = -0.129110727107     A.U. after   15 cycles
 SCF Done:  E(RPM6D3) = -0.129218403553     A.U. after   12 cycles
 SCF Done:  E(RPM6D3) = -0.129242234147     A.U. after   12 cycles
 SCF Done:  E(RPM6D3) = -0.129244687676     A.U. after   11 cycles
 SCF Done:  E(RPM6D3) = -0.129247332496     A.U. after   12 cycles
 SCF Done:  E(RPM6D3) = -0.129249658834     A.U. after   12 cycles
 SCF Done:  E(RPM6D3) = -0.129252758010     A.U. after   12 cycles
 SCF Done:  E(RPM6D3) = -0.129255148887     A.U. after   12 cycles
 SCF Done:  E(RPM6D3) = -0.129255604855     A.U. after   11 cycles
 SCF Done:  E(RPM6D3) = -0.129255675346     A.U. after    9 cycles
 SCF Done:  E(RPM6D3) = -0.129255729753     A.U. after   10 cycles
 SCF Done:  E(RPM6D3) = -0.129255773948     A.U. after   10 cycles
 SCF Done:  E(RPM6D3) = -0.129255810407     A.U. after    9 cycles
 SCF Done:  E(RPM6D3) = -0.129255849758     A.U. after    9 cycles
 SCF Done:  E(RPM6D3) = -0.129255869965     A.U. after    9 cycles
 Optimization completed.
    -- Stationary point found.
 Normal termination of Gaussian 09 at Wed Aug 12 16:40:13 2020.

 -------------------------------------------------------------
 #N Geom=AllCheck Guess=TCheck SCRF=Check GenChk RPM6/ZDO Freq
 -------------------------------------------------------------

 Structure from the checkpoint file:  "water_diene_pm6_cpcmtoluene.chk"
 -------------------
 Title Card Required
 -------------------
 Charge =  0 Multiplicity = 1

                         Standard orientation:
 ---------------------------------------------------------------------
 Center     Atomic      Atomic             Coordinates (Angstroms)
 Number     Number       Type             X           Y           Z
 ---------------------------------------------------------------------
      1          6           0       -2.561895    0.627327   -0.283810
      2          1           0       -2.850692    1.545692   -0.802212
      3          6           0       -1.118313    0.399439   -0.215156
      4          1           0       -0.509506    1.310929   -0.206176
      5          6           0       -3.483940   -0.187314    0.250190
      6          1           0       -3.205010   -1.100174    0.783155
      7          6           0       -4.947957    0.069272    0.179650
      8          1           0       -5.386330    0.154467    1.185886
      9          1           0       -5.206612    0.989522   -0.361462
     10          1           0       -5.472122   -0.757498   -0.324232
     11          6           0       -0.540031   -0.807755   -0.178946
     12          1           0       -1.119547   -1.735709   -0.201991
     13          6           0        0.932739   -1.044951   -0.114055
     14          1           0        1.313108   -1.525219   -1.036757
     15          1           0        1.215529   -1.639669    0.776346
     16          6           0        2.937716    0.387851    0.082196
     17          6           0        3.787280   -0.823013    0.054527
     18          1           0        3.675782   -1.403771   -0.877862
     19          1           0        4.859790   -0.571389    0.132611
     20          1           0        3.573016   -1.516209    0.886685
     21          8           0        1.567464    0.273400    0.004020
     22          8           0        3.317411    1.542087    0.170785
 ---------------------------------------------------------------------

 SCF Done:  E(RPM6D3) = -0.129255869965     A.U. after    2 cycles

 The electronic state is 1-A.
 Alpha  occ. eigenvalues --   -1.18524  -1.13166  -1.05378  -1.01243  -0.99172
 Alpha  occ. eigenvalues --   -0.94327  -0.84797  -0.79496  -0.75420  -0.68604
 Alpha  occ. eigenvalues --   -0.65714  -0.63489  -0.61797  -0.58542  -0.56037
 Alpha  occ. eigenvalues --   -0.55784  -0.52896  -0.52147  -0.51834  -0.51049
 Alpha  occ. eigenvalues --   -0.50103  -0.48261  -0.45566  -0.44958  -0.43500
 Alpha  occ. eigenvalues --   -0.41975  -0.41147  -0.34568
 Alpha virt. eigenvalues --    0.00718   0.01515   0.03119   0.06011   0.09061
 Alpha virt. eigenvalues --    0.12088   0.13444   0.15185   0.16102   0.17656
 Alpha virt. eigenvalues --    0.17966   0.18359   0.18577   0.18718   0.18948

 Mulliken charges:
               1
     1  C   -0.254000
     2  H    0.160474
     3  C   -0.093716
     4  H    0.155828
     5  C   -0.044487
     6  H    0.139517
     7  C   -0.496960
     8  H    0.171108
     9  H    0.165093
    10  H    0.171693
    11  C   -0.234340
    12  H    0.171477
    13  C    0.014511
    14  H    0.148766
    15  H    0.148109
    16  C    0.719853
    17  C   -0.646902
    18  H    0.221016
    19  H    0.217091
    20  H    0.220590
    21  O   -0.481698
    22  O   -0.573023
 Sum of Mulliken charges =   0.00000

 Dipole moment (field-independent basis, Debye):
    X=             -1.6163    Y=             -6.6002    Z=             -0.2220  Tot=              6.7988
 N-N= 2.990047693227D+02 E-N=-5.276896779808D+02  KE=-3.379506559605D+01
  Exact polarizability: 144.922   4.537 102.415 -10.919  -5.778  38.653
 Approx polarizability:  66.678   6.322  63.647  -3.593  -4.114  22.467
 D2PCM: C-PCM CHGder 2nd derivatives, FixD1E=F FixD2E=F DoIter=F DoCFld=F I1PDM=0
 Calling FoFJK, ICntrl=    100127 FMM=F ISym2X=0 I1Cent= 0 IOpClX= 0 NMat=1 NMatS=1 NMatT=0.
 Full mass-weighted force constant matrix:
 Low frequencies ---   -5.4245   -0.0547   -0.0262    0.0826    5.8833   17.5946
 Low frequencies ---   21.4905   33.9412   64.9317
 Diagonal vibrational polarizability:
       92.9567309      33.6588976     235.0866311

                      1                      2                      3
                      A                      A                      A
 Frequencies --     20.7211                33.4731                64.7966
 Red. masses --      2.6453                 3.2586                 1.3948
 Frc consts  --      0.0007                 0.0022                 0.0035
 IR Inten    --      1.2854                 6.6136                 0.4066

                      4                      5                      6
                      A                      A                      A
 Frequencies --     73.6014                86.1601               116.5009
 Red. masses --      3.8023                 1.3731                 1.0805
 Frc consts  --      0.0121                 0.0060                 0.0086
 IR Inten    --      5.0435                 0.3319                 1.8236

                      7                      8                      9
                      A                      A                      A
 Frequencies --    123.5950               149.0440               151.1966
 Red. masses --      4.6902                 4.1319                 2.0574
 Frc consts  --      0.0422                 0.0541                 0.0277
 IR Inten    --      0.1864                 1.1978                 7.4977

                     10                     11                     12
                      A                      A                      A
 Frequencies --    217.5377               307.2752               348.7459
 Red. masses --      3.7966                 2.7082                 3.3098
 Frc consts  --      0.1059                 0.1507                 0.2372
 IR Inten    --      2.2104                 0.3802                 1.0254

                     13                     14                     15
                      A                      A                      A
 Frequencies --    418.6233               519.3614               532.5835
 Red. masses --      3.9624                 4.6003                 6.3450
 Frc consts  --      0.4091                 0.7311                 1.0604
 IR Inten    --      7.7826                 0.9816                81.1058

                     16                     17                     18
                      A                      A                      A
 Frequencies --    538.2193               668.1585               781.1008
 Red. masses --      3.1096                 3.6055                 1.4787
 Frc consts  --      0.5307                 0.9484                 0.5316
 IR Inten    --     15.5373                 2.7305                12.7845

                     19                     20                     21
                      A                      A                      A
 Frequencies --    844.8046               916.0309               931.9402
 Red. masses --      1.4024                 3.8872                 1.1190
 Frc consts  --      0.5897                 1.9218                 0.5726
 IR Inten    --      6.1370                18.6511               168.3804

                     22                     23                     24
                      A                      A                      A
 Frequencies --    957.3920               971.2103               980.6995
 Red. masses --      1.4204                 1.3224                 1.8228
 Frc consts  --      0.7671                 0.7349                 1.0329
 IR Inten    --     14.2392                41.5376                17.4278

                     25                     26                     27
                      A                      A                      A
 Frequencies --    991.7169              1014.0511              1032.6795
 Red. masses --      1.6355                 1.6358                 1.6202
 Frc consts  --      0.9477                 0.9911                 1.0180
 IR Inten    --      5.0412               150.6317                16.2759

                     28                     29                     30
                      A                      A                      A
 Frequencies --   1068.6505              1100.9788              1130.1688
 Red. masses --      2.7742                 3.2659                 1.0589
 Frc consts  --      1.8666                 2.3324                 0.7969
 IR Inten    --     83.6445               254.9893                 1.5038

                     31                     32                     33
                      A                      A                      A
 Frequencies --   1172.5513              1177.0723              1179.5609
 Red. masses --      1.4801                 1.2922                 1.0519
 Frc consts  --      1.1989                 1.0548                 0.8623
 IR Inten    --    236.2692                 9.5913                98.0028

                     34                     35                     36
                      A                      A                      A
 Frequencies --   1211.7888              1226.2547              1228.9093
 Red. masses --      1.0662                 1.0526                 1.4080
 Frc consts  --      0.9225                 0.9326                 1.2528
 IR Inten    --     67.8545                61.1640                93.3995

                     37                     38                     39
                      A                      A                      A
 Frequencies --   1234.9416              1261.5061              1272.8536
 Red. masses --      1.6796                 1.4231                 1.2628
 Frc consts  --      1.5092                 1.3343                 1.2055
 IR Inten    --    487.7376               230.0634                30.5385

                     40                     41                     42
                      A                      A                      A
 Frequencies --   1276.7813              1280.9392              1285.2823
 Red. masses --      1.4062                 1.2932                 1.7562
 Frc consts  --      1.3506                 1.2501                 1.7093
 IR Inten    --     67.1251               290.8549                15.9918

                     43                     44                     45
                      A                      A                      A
 Frequencies --   1307.1538              1314.7715              1322.9371
 Red. masses --      1.6422                 1.6858                 1.6477
 Frc consts  --      1.6532                 1.7169                 1.6990
 IR Inten    --     41.5580               101.0840                91.7741

                     46                     47                     48
                      A                      A                      A
 Frequencies --   1750.9395              1779.5580              1793.7753
 Red. masses --     11.8255                 9.3173                 9.3300
 Frc consts  --     21.3605                17.3846                17.6875
 IR Inten    --    765.0660                80.1830                13.2833

                     49                     50                     51
                      A                      A                      A
 Frequencies --   2645.3811              2657.7422              2661.2997
 Red. masses --      1.0885                 1.0850                 1.0859
 Frc consts  --      4.4881                 4.5156                 4.5315
 IR Inten    --     84.5984               200.4940               194.9546

                     52                     53                     54
                      A                      A                      A
 Frequencies --   2678.5369              2684.2768              2703.7007
 Red. masses --      1.0842                 1.0836                 1.0446
 Frc consts  --      4.5831                 4.6004                 4.4989
 IR Inten    --    103.2617                72.1979                75.5453

                     55                     56                     57
                      A                      A                      A
 Frequencies --   2721.3549              2730.8182              2738.6438
 Red. masses --      1.0648                 1.0691                 1.0776
 Frc consts  --      4.6459                 4.6973                 4.7619
 IR Inten    --     17.6133                24.7464               147.1263

                     58                     59                     60
                      A                      A                      A
 Frequencies --   2748.2566              2777.6932              2784.5866
 Red. masses --      1.0760                 1.0333                 1.0328
 Frc consts  --      4.7883                 4.6971                 4.7182
 IR Inten    --    284.1655               127.2353                74.9358

 - Thermochemistry -
 -------------------
 Temperature   298.150 Kelvin.  Pressure   1.00000 Atm.
 Atom     1 has atomic number  6 and mass  12.00000

 Molecular mass:   140.08373 amu.
 Principal axes and moments of inertia in atomic units:
                           1         2         3
     Eigenvalues --   379.862154314.664924622.91989
           X            0.99986  -0.01658  -0.00173
           Y            0.01654   0.99965  -0.02056
           Z            0.00207   0.02053   0.99979
 This molecule is an asymmetric top.
 Rotational symmetry number  1.
 Rotational temperatures (Kelvin)      0.22801     0.02007     0.01874
 Rotational constants (GHZ):           4.75104     0.41828     0.39039
 Zero-point vibrational energy     440829.2 (Joules/Mol)
                                  105.36070 (Kcal/Mol)
 Warning -- explicit consideration of  16 degrees of freedom as
           vibrations may cause significant error
 Vibrational temperatures:     29.81    48.16    93.23   105.90   123.96
          (Kelvin)            167.62   177.83   214.44   217.54   312.99
                              442.10   501.77   602.30   747.24   766.27
                              774.38   961.33  1123.83  1215.48  1317.96
                             1340.85  1377.47  1397.35  1411.01  1426.86
                             1458.99  1485.79  1537.55  1584.06  1626.06
                             1687.04  1693.54  1697.12  1743.49  1764.30
                             1768.12  1776.80  1815.02  1831.35  1837.00
                             1842.98  1849.23  1880.70  1891.66  1903.41
                             2519.21  2560.38  2580.84  3806.11  3823.89
                             3829.01  3853.81  3862.07  3890.02  3915.42
                             3929.03  3940.29  3954.12  3996.48  4006.39

 Zero-point correction=                           0.167903 (Hartree/Particle)
 Thermal correction to Energy=                    0.180638
 Thermal correction to Enthalpy=                  0.181582
 Thermal correction to Gibbs Free Energy=         0.126260
 Sum of electronic and zero-point Energies=              0.038647
 Sum of electronic and thermal Energies=                 0.051382
 Sum of electronic and thermal Enthalpies=               0.052326
 Sum of electronic and thermal Free Energies=           -0.002996

                     E (Thermal)             CV                S
                      KCal/Mol        Cal/Mol-Kelvin    Cal/Mol-Kelvin
 Total                  113.352             42.523            116.435
 Electronic               0.000              0.000              0.000
 Translational            0.889              2.981             40.723
 Rotational               0.889              2.981             30.406
 Vibrational            111.574             36.561             45.306
 Vibration     1          0.593              1.986              6.564
 Vibration     2          0.594              1.983              5.612
 Vibration     3          0.597              1.971              4.306
 Vibration     4          0.599              1.966              4.055
 Vibration     5          0.601              1.959              3.745
 Vibration     6          0.608              1.936              3.158
 Vibration     7          0.610              1.929              3.043
 Vibration     8          0.618              1.904              2.684
 Vibration     9          0.619              1.901              2.657
 Vibration    10          0.646              1.814              1.979
 Vibration    11          0.697              1.660              1.377
 Vibration    12          0.726              1.578              1.172
 Vibration    13          0.781              1.430              0.897
 Vibration    14          0.874              1.207              0.611
 Vibration    15          0.888              1.178              0.581
 Vibration    16          0.893              1.166              0.569

 Optimization completed.
    -- Stationary point found.
 Normal termination of Gaussian 09 at Wed Aug 12 16:40:19 2020.
