 Gaussian 09, Revision D.01,
 Gaussian 09:  ES64L-G09RevD.01 24-Apr-2013

 ----------------------------------------------------------------------
 # opt freq pm6 scrf=(cpcm,solvent=water) geom=connectivity empiricaldi
 spersion=gd3
 ----------------------------------------------------------------------

 -------------------
 Title Card Required
 -------------------
 Symbolic Z-matrix:
 Charge =  0 Multiplicity = 1

 SCF Done:  E(RPM6D3) = -0.937873949927E-01 A.U. after   14 cycles
 SCF Done:  E(RPM6D3) = -0.937879590079E-01 A.U. after   10 cycles
 SCF Done:  E(RPM6D3) = -0.937897382823E-01 A.U. after   10 cycles
 SCF Done:  E(RPM6D3) = -0.937907791224E-01 A.U. after   10 cycles
 Optimization completed.
    -- Stationary point found.
 Normal termination of Gaussian 09 at Wed Aug 12 16:54:20 2020.

 -------------------------------------------------------------
 #N Geom=AllCheck Guess=TCheck SCRF=Check GenChk RPM6/ZDO Freq
 -------------------------------------------------------------

 Structure from the checkpoint file:  "water_dienophile_pm6_cpcmtoluene_1_1.chk"
 -------------------
 Title Card Required
 -------------------
 Charge =  0 Multiplicity = 1

                         Standard orientation:
 ---------------------------------------------------------------------
 Center     Atomic      Atomic             Coordinates (Angstroms)
 Number     Number       Type             X           Y           Z
 ---------------------------------------------------------------------
      1          6           0       -1.181037   -0.214355   -0.000515
      2          6           0       -0.672586   -1.642814    0.001687
      3          6           0        0.665133   -1.645330    0.001495
      4          6           0        1.179411   -0.218688   -0.000475
      5          1           0       -1.366395   -2.473276    0.002517
      6          1           0        1.355654   -2.478541    0.002172
      7          6           0        0.006507    2.073493    0.003500
      8          1           0        0.737167    2.463251   -0.727882
      9          1           0       -0.991919    2.463919   -0.264079
     10          1           0        0.273658    2.459049    1.003996
     11          7           0        0.000696    0.600070   -0.006030
     12          8           0        2.310475    0.198244   -0.000519
     13          8           0       -2.310176    0.208166   -0.000564
 ---------------------------------------------------------------------

 SCF Done:  E(RPM6D3) = -0.937907791231E-01 A.U. after    2 cycles

 The electronic state is 1-A.
 Alpha  occ. eigenvalues --   -1.24221  -1.20581  -1.17556  -1.06515  -0.91625
 Alpha  occ. eigenvalues --   -0.88711  -0.78318  -0.74881  -0.64722  -0.63033
 Alpha  occ. eigenvalues --   -0.61234  -0.58581  -0.56654  -0.56080  -0.53762
 Alpha  occ. eigenvalues --   -0.53513  -0.51033  -0.44406  -0.43721  -0.40675
 Alpha  occ. eigenvalues --   -0.39058
 Alpha virt. eigenvalues --   -0.05812   0.01585   0.02632   0.03055   0.07801
 Alpha virt. eigenvalues --    0.08040   0.11888   0.12327   0.14364   0.16767
 Alpha virt. eigenvalues --    0.16909   0.18931   0.18991   0.19047   0.19327

 Mulliken charges:
               1
     1  C    0.618163
     2  C   -0.208842
     3  C   -0.209009
     4  C    0.618551
     5  H    0.207886
     6  H    0.207860
     7  C   -0.254274
     8  H    0.165869
     9  H    0.170511
    10  H    0.161815
    11  N   -0.485677
    12  O   -0.496208
    13  O   -0.496644
 Sum of Mulliken charges =   0.00000

 Dipole moment (field-independent basis, Debye):
    X=             -0.0265    Y=             -1.5967    Z=             -0.0002  Tot=              1.5969
 N-N= 2.125972520523D+02 E-N=-3.711222654253D+02  KE=-2.449431512790D+01
  Exact polarizability: 149.117   0.098  62.088  -0.007   0.065  16.169
 Approx polarizability:  83.438   0.001  35.767  -0.004   0.001   9.610
 D2PCM: C-PCM CHGder 2nd derivatives, FixD1E=F FixD2E=F DoIter=F DoCFld=F I1PDM=0
 Calling FoFJK, ICntrl=    100127 FMM=F ISym2X=0 I1Cent= 0 IOpClX= 0 NMat=1 NMatS=1 NMatT=0.
 Full mass-weighted force constant matrix:
 Low frequencies ---  -19.8419  -10.8326   -2.8997   -0.0018    0.0348    0.1213
 Low frequencies ---   22.1898  107.3257  184.2973
 Diagonal vibrational polarizability:
       72.2557255      22.1474765      82.9651997

                      1                      2                      3
                      A                      A                      A
 Frequencies --     20.5499               107.2966               184.2668
 Red. masses --      1.0235                 5.6634                 5.2653
 Frc consts  --      0.0003                 0.0384                 0.1053
 IR Inten    --      0.1100                25.6324                11.7682

                      4                      5                      6
                      A                      A                      A
 Frequencies --    250.8569               256.4398               349.5164
 Red. masses --      3.2864                 3.4896                10.6021
 Frc consts  --      0.1218                 0.1352                 0.7631
 IR Inten    --      8.2963                 0.0887                54.6628

                      7                      8                      9
                      A                      A                      A
 Frequencies --    526.6453               542.5769               548.4320
 Red. masses --      4.9777                 9.0741                 3.6274
 Frc consts  --      0.8134                 1.5739                 0.6428
 IR Inten    --     54.0755                 1.6273                50.1134

                     10                     11                     12
                      A                      A                      A
 Frequencies --    644.8638               668.2815               834.6804
 Red. masses --      8.2241                 4.2922                 6.3007
 Frc consts  --      2.0150                 1.1294                 2.5863
 IR Inten    --     41.6612                 0.0171                23.3216

                     13                     14                     15
                      A                      A                      A
 Frequencies --    873.4736               952.5562               957.4977
 Red. masses --      1.5081                 1.9808                 1.6157
 Frc consts  --      0.6779                 1.0589                 0.8727
 IR Inten    --    214.5783               398.0439                 1.2617

                     16                     17                     18
                      A                      A                      A
 Frequencies --   1018.5100              1048.6997              1055.6774
 Red. masses --      3.2011                 1.6566                 1.2955
 Frc consts  --      1.9565                 1.0734                 0.8507
 IR Inten    --    267.9475                89.6329                10.3805

                     19                     20                     21
                      A                      A                      A
 Frequencies --   1170.9861              1197.1636              1219.0612
 Red. masses --      2.2075                 1.8930                 1.0531
 Frc consts  --      1.7835                 1.5985                 0.9221
 IR Inten    --     42.4383                44.2274                50.8038

                     22                     23                     24
                      A                      A                      A
 Frequencies --   1223.9092              1250.5456              1316.3669
 Red. masses --      1.2688                 1.6193                 1.2858
 Frc consts  --      1.1198                 1.4920                 1.3128
 IR Inten    --      9.4810               476.5018                 0.3483

                     25                     26                     27
                      A                      A                      A
 Frequencies --   1430.5179              1736.1402              1744.9981
 Red. masses --      5.1890                 8.4562                13.2130
 Frc consts  --      6.2563                15.0175                23.7052
 IR Inten    --    325.4124                 4.6117              2792.1585

                     28                     29                     30
                      A                      A                      A
 Frequencies --   1862.3224              2656.8157              2660.2240
 Red. masses --     12.8821                 1.0862                 1.0870
 Frc consts  --     26.3237                 4.5174                 4.5322
 IR Inten    --      7.8641                98.0797               122.5081

                     31                     32                     33
                      A                      A                      A
 Frequencies --   2733.6729              2750.1175              2757.1692
 Red. masses --      1.0752                 1.0831                 1.0339
 Frc consts  --      4.7340                 4.8264                 4.6308
 IR Inten    --    295.9361               358.9317                 1.0002

 - Thermochemistry -
 -------------------
 Temperature   298.150 Kelvin.  Pressure   1.00000 Atm.
 Atom     1 has atomic number  6 and mass  12.00000

 Molecular mass:   111.03203 amu.
 Principal axes and moments of inertia in atomic units:
                           1         2         3
     Eigenvalues --   557.81941 792.371601338.61451
           X            1.00000   0.00097   0.00000
           Y           -0.00097   1.00000   0.00009
           Z            0.00000  -0.00009   1.00000
 This molecule is an asymmetric top.
 Rotational symmetry number  1.
 Warning -- assumption of classical behavior for rotation
           may cause significant error
 Rotational temperatures (Kelvin)      0.15527     0.10931     0.06470
 Rotational constants (GHZ):           3.23535     2.27764     1.34822
 Zero-point vibrational energy     230585.2 (Joules/Mol)
                                   55.11118 (Kcal/Mol)
 Warning -- explicit consideration of   9 degrees of freedom as
           vibrations may cause significant error
 Vibrational temperatures:     29.57   154.38   265.12   360.93   368.96
          (Kelvin)            502.88   757.72   780.65   789.07   927.81
                              961.51  1200.92  1256.73  1370.51  1377.62
                             1465.41  1508.84  1518.88  1684.79  1722.45
                             1753.95  1760.93  1799.25  1893.96  2058.19
                             2497.92  2510.66  2679.46  3822.56  3827.46
                             3933.14  3956.80  3966.95

 Zero-point correction=                           0.087825 (Hartree/Particle)
 Thermal correction to Energy=                    0.095453
 Thermal correction to Enthalpy=                  0.096397
 Thermal correction to Gibbs Free Energy=         0.054520
 Sum of electronic and zero-point Energies=             -0.005966
 Sum of electronic and thermal Energies=                 0.001662
 Sum of electronic and thermal Enthalpies=               0.002606
 Sum of electronic and thermal Free Energies=           -0.039271

                     E (Thermal)             CV                S
                      KCal/Mol        Cal/Mol-Kelvin    Cal/Mol-Kelvin
 Total                   59.898             26.466             88.139
 Electronic               0.000              0.000              0.000
 Translational            0.889              2.981             40.030
 Rotational               0.889              2.981             27.872
 Vibrational             58.120             20.505             20.236
 Vibration     1          0.593              1.986              6.580
 Vibration     2          0.606              1.943              3.317
 Vibration     3          0.631              1.861              2.285
 Vibration     4          0.663              1.761              1.725
 Vibration     5          0.666              1.752              1.686
 Vibration     6          0.727              1.576              1.168
 Vibration     7          0.882              1.191              0.595
 Vibration     8          0.898              1.156              0.560
 Vibration     9          0.904              1.143              0.547

 Normal termination of Gaussian 09 at Wed Aug 12 16:54:23 2020.
