 Gaussian 09, Revision D.01,
 Gaussian 09:  ES64L-G09RevD.01 24-Apr-2013

 ----------------------------------------------------------------------
 # freq pm6 scrf=(cpcm,solvent=water) geom=connectivity empiricaldisper
 sion=gd3
 ----------------------------------------------------------------------

 -------------------
 Title Card Required
 -------------------
 Symbolic Z-matrix:
 Charge =  0 Multiplicity = 1

                         Standard orientation:
 ---------------------------------------------------------------------
 Center     Atomic      Atomic             Coordinates (Angstroms)
 Number     Number       Type             X           Y           Z
 ---------------------------------------------------------------------
      1          6           0        2.577995    2.748269   -0.473854
      2          6           0        2.982276    1.443869   -0.253480
      3          6           0        2.028433    0.443834    0.066818
      4          6           0        0.662391    0.800311    0.149871
      5          6           0        0.272794    2.143648   -0.069664
      6          6           0        1.213589    3.105913   -0.379499
      7          1           0        3.313042    3.516974   -0.721649
      8          1           0        4.040096    1.189217   -0.327005
      9          1           0       -0.791214    2.397900    0.011705
     10          1           0        0.917124    4.140554   -0.552963
     11          6           0       -0.342198   -0.218656    0.481348
     12          6           0        2.382394   -0.934449    0.325702
     13          6           0        0.066072   -1.560852    0.696099
     14          1           0       -0.597757   -2.240647    1.234571
     15          6           0        1.464583   -1.883203    0.658114
     16          1           0        1.758240   -2.912291    0.882099
     17          8           0       -1.588426    0.089548    0.453296
     18         17           0        4.049533   -1.381742    0.227401
     19          6           0       -2.497199   -0.636701   -1.242046
     20          6           0       -2.028551   -1.946409   -1.014797
     21          1           0       -2.718305   -2.654251   -0.543436
     22          6           0       -3.881778   -0.269251   -0.839358
     23          1           0       -4.542740   -0.158826   -1.716043
     24          1           0       -4.359684   -0.998406   -0.169808
     25          1           0       -3.905908    0.705204   -0.313614
     26          6           0       -1.827854    0.290054   -2.195758
     27          1           0       -0.728133    0.242481   -2.169438
     28          1           0       -2.121004    0.047928   -3.233867
     29          1           0       -2.097803    1.344996   -2.036394
     30          6           0       -0.701892   -2.315980   -1.148697
     31          1           0       -0.388970   -3.341531   -0.957138
     32          1           0        0.005247   -1.745653   -1.749139
     33          8           0       -2.903837    2.119670    1.221625
     34          1           0       -2.169897    1.855606    0.623508
     35          1           0       -3.092481    1.300001    1.737397
     36          8           0       -3.077342   -0.382564    2.442255
     37          1           0       -2.327207   -0.344534    3.040913
     38          1           0       -2.704196   -0.730714    1.592260
 ---------------------------------------------------------------------

 SCF Done:  E(RPM6D3) = -0.190893321374     A.U. after   23 cycles

 The electronic state is 1-A.
 Alpha  occ. eigenvalues --   -1.14205  -1.11869  -1.10331  -1.08175  -1.07822
 Alpha  occ. eigenvalues --   -1.06528  -1.00476  -0.98590  -0.96554  -0.95259
 Alpha  occ. eigenvalues --   -0.92250  -0.89756  -0.82878  -0.81519  -0.80743
 Alpha  occ. eigenvalues --   -0.76108  -0.69655  -0.68625  -0.68233  -0.65661
 Alpha  occ. eigenvalues --   -0.64596  -0.63194  -0.61128  -0.60161  -0.58365
 Alpha  occ. eigenvalues --   -0.57468  -0.57290  -0.55608  -0.54682  -0.53732
 Alpha  occ. eigenvalues --   -0.53151  -0.52456  -0.51925  -0.51552  -0.50585
 Alpha  occ. eigenvalues --   -0.49843  -0.49314  -0.48943  -0.47842  -0.47295
 Alpha  occ. eigenvalues --   -0.46881  -0.46534  -0.45023  -0.44109  -0.42943
 Alpha  occ. eigenvalues --   -0.42174  -0.41319  -0.40224  -0.39077  -0.38041
 Alpha  occ. eigenvalues --   -0.35368  -0.31991
 Alpha virt. eigenvalues --   -0.04242  -0.02617  -0.00985   0.01773   0.02580
 Alpha virt. eigenvalues --    0.03373   0.06178   0.08982   0.11498   0.12467
 Alpha virt. eigenvalues --    0.12698   0.12720   0.12895   0.14500   0.14697

 Mulliken charges:
               1
     1  C   -0.078153
     2  C   -0.217588
     3  C    0.102680
     4  C   -0.200800
     5  C   -0.072905
     6  C   -0.194380
     7  H    0.156904
     8  H    0.173517
     9  H    0.152406
    10  H    0.166102
    11  C    0.465680
    12  C   -0.105973
    13  C   -0.427732
    14  H    0.194955
    15  C   -0.045769
    16  H    0.167214
    17  O   -0.685526
    18  Cl  -0.104383
    19  C    0.550351
    20  C   -0.466061
    21  H    0.191749
    22  C   -0.598967
    23  H    0.202956
    24  H    0.190064
    25  H    0.211115
    26  C   -0.594233
    27  H    0.196280
    28  H    0.204554
    29  H    0.196376
    30  C    0.019415
    31  H    0.150078
    32  H    0.144878
    33  O   -0.729920
    34  H    0.339971
    35  H    0.345456
    36  O   -0.682286
    37  H    0.327350
    38  H    0.354626
 Sum of Mulliken charges =   0.00000

 Dipole moment (field-independent basis, Debye):
    X=              0.9174    Y=             -3.9706    Z=             -5.7243  Tot=              7.0267
 N-N= 8.637114313872D+02 E-N=-1.592442268037D+03  KE=-6.735907843662D+01
  Exact polarizability: 329.382  14.866 255.690  19.269 -20.945 103.976
 Approx polarizability: 178.718  -2.506 152.767   0.434 -15.642  58.731
 PrsmSu:  requested number of processors reduced to:   1 ShMem   1 Linda.
 D2PCM: C-PCM CHGder 2nd derivatives, FixD1E=F FixD2E=F DoIter=F DoCFld=F I1PDM=0
 Calling FoFJK, ICntrl=    100127 FMM=F ISym2X=0 I1Cent= 0 IOpClX= 0 NMat=1 NMatS=1 NMatT=0.
 CoulSu:  requested number of processors reduced to:   2 ShMem   1 Linda.
 Full mass-weighted force constant matrix:
 Low frequencies --- -567.6095   -7.8163   -4.7172   -3.0269   -0.0452    0.2478
 Low frequencies ---    0.3518   32.0548   39.5044
 ******    1 imaginary frequencies (negative Signs) ******

                      1                      2                      3
                      A                      A                      A
 Frequencies --   -567.6095                32.0208                39.4523
 Red. masses --      9.8993                 5.5153                 6.1707
 Frc consts  --      1.8791                 0.0033                 0.0057
 IR Inten    --    901.1699                 2.0437                 1.1619

                      4                      5                      6
                      A                      A                      A
 Frequencies --     55.5779                58.6457                69.1486
 Red. masses --      4.3281                 3.4923                 5.6967
 Frc consts  --      0.0079                 0.0071                 0.0160
 IR Inten    --      1.3661                10.7741                 4.7951

                      7                      8                      9
                      A                      A                      A
 Frequencies --     82.6956                85.5815               107.6203
 Red. masses --      1.1560                 4.9053                 4.0219
 Frc consts  --      0.0047                 0.0212                 0.0274
 IR Inten    --      7.4712                 2.5324                 3.3692

                     10                     11                     12
                      A                      A                      A
 Frequencies --    120.4911               126.9466               133.6079
 Red. masses --      1.5757                 2.6065                 2.2346
 Frc consts  --      0.0135                 0.0247                 0.0235
 IR Inten    --     32.9642                 8.7789                28.2880

                     13                     14                     15
                      A                      A                      A
 Frequencies --    145.1455               177.7114               188.4391
 Red. masses --      3.2772                 2.8866                 4.4965
 Frc consts  --      0.0407                 0.0537                 0.0941
 IR Inten    --    223.1504                 1.2049                25.7735

                     16                     17                     18
                      A                      A                      A
 Frequencies --    201.7419               211.3634               217.4355
 Red. masses --      5.3947                 2.6092                 5.6199
 Frc consts  --      0.1294                 0.0687                 0.1565
 IR Inten    --     22.4554                78.9154                 4.7058

                     19                     20                     21
                      A                      A                      A
 Frequencies --    241.5596               253.2416               268.1741
 Red. masses --      1.2756                 2.0898                 2.5479
 Frc consts  --      0.0439                 0.0790                 0.1080
 IR Inten    --     78.7944                23.3546                 4.5590

                     22                     23                     24
                      A                      A                      A
 Frequencies --    294.6216               328.6660               351.2617
 Red. masses --      3.2957                 1.8628                 1.8000
 Frc consts  --      0.1685                 0.1186                 0.1309
 IR Inten    --     37.8949                36.1357                 6.6088

                     25                     26                     27
                      A                      A                      A
 Frequencies --    353.6637               374.2003               383.3174
 Red. masses --      2.6507                 1.5154                 2.5334
 Frc consts  --      0.1953                 0.1250                 0.2193
 IR Inten    --     12.7868                 8.7610                 2.9779

                     28                     29                     30
                      A                      A                      A
 Frequencies --    397.5700               405.4152               431.0682
 Red. masses --      3.0049                 3.0617                 2.7856
 Frc consts  --      0.2798                 0.2965                 0.3050
 IR Inten    --     17.3091                 2.8098                 7.9498

                     31                     32                     33
                      A                      A                      A
 Frequencies --    449.9569               473.5842               490.6809
 Red. masses --      2.2137                 4.2229                 1.1527
 Frc consts  --      0.2641                 0.5580                 0.1635
 IR Inten    --     20.3883                34.2297               452.6956

                     34                     35                     36
                      A                      A                      A
 Frequencies --    527.3130               535.6633               540.7086
 Red. masses --      3.8566                 3.4753                 3.0707
 Frc consts  --      0.6318                 0.5875                 0.5290
 IR Inten    --     19.0746                19.1077                 3.5899

                     37                     38                     39
                      A                      A                      A
 Frequencies --    558.0608               612.0093               656.4560
 Red. masses --      2.8893                 1.4038                 5.9342
 Frc consts  --      0.5302                 0.3098                 1.5067
 IR Inten    --     65.2674               485.3498                40.8594

                     40                     41                     42
                      A                      A                      A
 Frequencies --    666.0409               756.2392               768.7694
 Red. masses --      4.7779                 5.9797                 1.3959
 Frc consts  --      1.2488                 2.0149                 0.4861
 IR Inten    --     37.3514                11.0521               102.2349

                     43                     44                     45
                      A                      A                      A
 Frequencies --    772.5448               802.2303               807.7015
 Red. masses --      3.7176                 2.4387                 1.8266
 Frc consts  --      1.3072                 0.9247                 0.7021
 IR Inten    --     60.5340                20.3845                65.5315

                     46                     47                     48
                      A                      A                      A
 Frequencies --    888.1019               890.8489               900.9409
 Red. masses --      1.2205                 1.8652                 1.5054
 Frc consts  --      0.5672                 0.8721                 0.7200
 IR Inten    --    347.1289                19.1600                 9.8760

                     49                     50                     51
                      A                      A                      A
 Frequencies --    912.4298               925.0590               938.2177
 Red. masses --      1.2769                 1.4024                 1.2740
 Frc consts  --      0.6263                 0.7071                 0.6607
 IR Inten    --      6.2083                63.5611                 4.3220

                     52                     53                     54
                      A                      A                      A
 Frequencies --    953.5234               960.1949               961.0958
 Red. masses --      5.5113                 1.3040                 1.5034
 Frc consts  --      2.9524                 0.7084                 0.8182
 IR Inten    --    187.2961                30.6834                 4.9434

                     55                     56                     57
                      A                      A                      A
 Frequencies --    986.6015               988.3370              1043.0765
 Red. masses --      1.6735                 1.5386                 1.6078
 Frc consts  --      0.9597                 0.8855                 1.0307
 IR Inten    --      2.4787                18.6678               347.0372

                     58                     59                     60
                      A                      A                      A
 Frequencies --   1052.9775              1089.7338              1113.5107
 Red. masses --      1.6101                 1.5031                 2.3780
 Frc consts  --      1.0518                 1.0517                 1.7372
 IR Inten    --    216.5607               133.4425                49.0896

                     61                     62                     63
                      A                      A                      A
 Frequencies --   1121.8640              1155.2282              1164.3989
 Red. masses --      1.8643                 1.3157                 1.3452
 Frc consts  --      1.3825                 1.0346                 1.0746
 IR Inten    --      4.5483                 9.1872                49.9112

                     64                     65                     66
                      A                      A                      A
 Frequencies --   1175.0177              1185.5723              1193.4429
 Red. masses --      1.0697                 1.0666                 1.2815
 Frc consts  --      0.8702                 0.8833                 1.0754
 IR Inten    --    120.4130               127.0955                 5.4474

                     67                     68                     69
                      A                      A                      A
 Frequencies --   1204.6727              1209.1567              1229.9728
 Red. masses --      1.0652                 1.0639                 1.6040
 Frc consts  --      0.9108                 0.9165                 1.4297
 IR Inten    --     12.8626               175.0310                54.5796

                     70                     71                     72
                      A                      A                      A
 Frequencies --   1250.9183              1286.9082              1294.9802
 Red. masses --      1.3163                 1.2440                 2.2192
 Frc consts  --      1.2136                 1.2138                 2.1927
 IR Inten    --     19.2151                 0.1669               156.0333

                     73                     74                     75
                      A                      A                      A
 Frequencies --   1295.9672              1304.4822              1312.4246
 Red. masses --      1.2460                 1.1555                 1.3248
 Frc consts  --      1.2330                 1.1586                 1.3445
 IR Inten    --    252.7502                74.1732               189.5621

                     76                     77                     78
                      A                      A                      A
 Frequencies --   1320.5963              1366.9889              1384.9318
 Red. masses --      2.1511                 3.1405                 1.5729
 Frc consts  --      2.2103                 3.4577                 1.7775
 IR Inten    --     87.9557               292.7169               433.4193

                     79                     80                     81
                      A                      A                      A
 Frequencies --   1404.5431              1421.8571              1430.4571
 Red. masses --      3.2988                 1.4892                 2.2817
 Frc consts  --      3.8342                 1.7739                 2.7508
 IR Inten    --    111.2330                24.5531               269.6640

                     82                     83                     84
                      A                      A                      A
 Frequencies --   1467.2864              1472.7661              1478.2709
 Red. masses --      3.2915                 4.6745                 4.5633
 Frc consts  --      4.1752                 5.9738                 5.8754
 IR Inten    --    129.2577               297.4997                31.1303

                     85                     86                     87
                      A                      A                      A
 Frequencies --   1522.9266              1587.3298              1613.9122
 Red. masses --      6.5824                 8.9335                10.1369
 Frc consts  --      8.9948                13.2620                15.5566
 IR Inten    --    121.8912               800.1799               506.7919

                     88                     89                     90
                      A                      A                      A
 Frequencies --   1657.5113              1667.4884              2297.0733
 Red. masses --     10.5590                10.3045                 1.0855
 Frc consts  --     17.0916                16.8811                 3.3748
 IR Inten    --    161.6659               113.7084               597.8606

                     91                     92                     93
                      A                      A                      A
 Frequencies --   2387.7707              2513.5366              2593.4596
 Red. masses --      1.0802                 1.0253                 1.0282
 Frc consts  --      3.6288                 3.8166                 4.0746
 IR Inten    --   1142.6470               318.7801               127.3757

                     94                     95                     96
                      A                      A                      A
 Frequencies --   2643.3240              2660.3301              2673.4601
 Red. masses --      1.0837                 1.0844                 1.0856
 Frc consts  --      4.4614                 4.5220                 4.5716
 IR Inten    --    192.5955               186.5166               107.9311

                     97                     98                     99
                      A                      A                      A
 Frequencies --   2675.3585              2685.7432              2710.0648
 Red. masses --      1.0870                 1.0939                 1.0715
 Frc consts  --      4.5840                 4.6489                 4.6365
 IR Inten    --    192.2546                44.6636               174.1951

                    100                    101                    102
                      A                      A                      A
 Frequencies --   2730.4567              2734.6369              2735.4145
 Red. masses --      1.0693                 1.0698                 1.0627
 Frc consts  --      4.6971                 4.7134                 4.6852
 IR Inten    --     61.7605                29.6043                58.3295

                    103                    104                    105
                      A                      A                      A
 Frequencies --   2739.8745              2742.9339              2743.2747
 Red. masses --      1.0667                 1.0712                 1.0707
 Frc consts  --      4.7179                 4.7484                 4.7473
 IR Inten    --    710.8759               343.1339               201.0173

                    106                    107                    108
                      A                      A                      A
 Frequencies --   2752.7284              2772.3309              2780.4564
 Red. masses --      1.0780                 1.0324                 1.0334
 Frc consts  --      4.8129                 4.6752                 4.7069
 IR Inten    --    216.0644               198.2360               112.2885

 - Thermochemistry -
 -------------------
 Temperature   298.150 Kelvin.  Pressure   1.00000 Atm.
 Atom     1 has atomic number  6 and mass  12.00000

 Molecular mass:   282.10227 amu.
 Principal axes and moments of inertia in atomic units:
                           1         2         3
     Eigenvalues --  3646.769447283.580478764.17579
           X            0.99976   0.02165   0.00146
           Y           -0.02163   0.99971  -0.01084
           Z           -0.00169   0.01081   0.99994
 This molecule is an asymmetric top.
 Rotational symmetry number  1.
 Warning -- assumption of classical behavior for rotation
           may cause significant error
 Rotational temperatures (Kelvin)      0.02375     0.01189     0.00988
 Rotational constants (GHZ):           0.49489     0.24778     0.20592
    1 imaginary frequencies ignored.
 Zero-point vibrational energy     717239.6 (Joules/Mol)
                                  171.42437 (Kcal/Mol)
 Warning -- explicit consideration of  37 degrees of freedom as
           vibrations may cause significant error
 Vibrational temperatures:     46.07    56.76    79.96    84.38    99.49
          (Kelvin)            118.98   123.13   154.84   173.36   182.65
                              192.23   208.83   255.69   271.12   290.26
                              304.10   312.84   347.55   364.36   385.84
                              423.89   472.88   505.39   508.84   538.39
                              551.51   572.01   583.30   620.21   647.39
                              681.38   705.98   758.68   770.70   777.96
                              802.92   880.54   944.49   958.28  1088.06
                             1106.09  1111.52  1154.23  1162.10  1277.78
                             1281.73  1296.25  1312.78  1330.95  1349.88
                             1371.91  1381.50  1382.80  1419.50  1421.99
                             1500.75  1515.00  1567.88  1602.09  1614.11
                             1662.11  1675.31  1690.59  1705.77  1717.10
                             1733.25  1739.70  1769.65  1799.79  1851.57
                             1863.19  1864.61  1876.86  1888.28  1900.04
                             1966.79  1992.61  2020.82  2045.73  2058.11
                             2111.10  2118.98  2126.90  2191.15  2283.81
                             2322.06  2384.79  2399.14  3304.97  3435.47
                             3616.41  3731.41  3803.15  3827.62  3846.51
                             3849.24  3864.18  3899.17  3928.51  3934.53
                             3935.65  3942.06  3946.47  3946.96  3960.56
                             3988.76  4000.45

 Zero-point correction=                           0.273182 (Hartree/Particle)
 Thermal correction to Energy=                    0.295776
 Thermal correction to Enthalpy=                  0.296721
 Thermal correction to Gibbs Free Energy=         0.221496
 Sum of electronic and zero-point Energies=              0.082289
 Sum of electronic and thermal Energies=                 0.104883
 Sum of electronic and thermal Enthalpies=               0.105827
 Sum of electronic and thermal Free Energies=            0.030603

                     E (Thermal)             CV                S
                      KCal/Mol        Cal/Mol-Kelvin    Cal/Mol-Kelvin
 Total                  185.602             82.747            158.324
 Electronic               0.000              0.000              0.000
 Translational            0.889              2.981             42.809
 Rotational               0.889              2.981             33.809
 Vibrational            183.825             76.785             81.705
 Vibration     1          0.594              1.983              5.700
 Vibration     2          0.594              1.981              5.286
 Vibration     3          0.596              1.975              4.608
 Vibration     4          0.596              1.974              4.502
 Vibration     5          0.598              1.969              4.177
 Vibration     6          0.600              1.961              3.826
 Vibration     7          0.601              1.959              3.759
 Vibration     8          0.606              1.943              3.311
 Vibration     9          0.609              1.932              3.092
 Vibration    10          0.611              1.926              2.992
 Vibration    11          0.613              1.920              2.893
 Vibration    12          0.617              1.908              2.735
 Vibration    13          0.628              1.870              2.352
 Vibration    14          0.633              1.856              2.243
 Vibration    15          0.639              1.837              2.117
 Vibration    16          0.643              1.824              2.032
 Vibration    17          0.646              1.814              1.980
 Vibration    18          0.658              1.777              1.791
 Vibration    19          0.664              1.757              1.708
 Vibration    20          0.673              1.732              1.608
 Vibration    21          0.689              1.684              1.447
 Vibration    22          0.712              1.618              1.267
 Vibration    23          0.728              1.573              1.161
 Vibration    24          0.730              1.568              1.150
 Vibration    25          0.745              1.525              1.063
 Vibration    26          0.753              1.506              1.026
 Vibration    27          0.764              1.475              0.972
 Vibration    28          0.770              1.458              0.943
 Vibration    29          0.792              1.403              0.855
 Vibration    30          0.809              1.361              0.796
 Vibration    31          0.830              1.309              0.728
 Vibration    32          0.846              1.271              0.682
 Vibration    33          0.882              1.190              0.593
 Vibration    34          0.891              1.171              0.575
 Vibration    35          0.896              1.160              0.564
 Vibration    36          0.914              1.122              0.528
 Vibration    37          0.971              1.006              0.429

 Normal termination of Gaussian 09 at Fri Aug 21 00:49:50 2020.
