 Gaussian 09, Revision D.01,
 Gaussian 09:  ES64L-G09RevD.01 24-Apr-2013

 ----------------------------------------------------------------------
 # opt freq pm6 scrf=(cpcm,solvent=water) geom=connectivity empiricaldi
 spersion=gd3
 ----------------------------------------------------------------------

 -------------------
 Title Card Required
 -------------------
 Symbolic Z-matrix:
 Charge =  0 Multiplicity = 1

 SCF Done:  E(RPM6D3) = -0.221963293418     A.U. after   22 cycles
 SCF Done:  E(RPM6D3) = -0.218450031516     A.U. after   18 cycles
 SCF Done:  E(RPM6D3) = -0.224597401531     A.U. after   17 cycles
 SCF Done:  E(RPM6D3) = -0.224152776570     A.U. after   17 cycles
 SCF Done:  E(RPM6D3) = -0.224733571686     A.U. after   12 cycles
 SCF Done:  E(RPM6D3) = -0.225646111420     A.U. after   17 cycles
 SCF Done:  E(RPM6D3) = -0.226074180659     A.U. after   16 cycles
 SCF Done:  E(RPM6D3) = -0.226521642550     A.U. after   15 cycles
 SCF Done:  E(RPM6D3) = -0.226765962332     A.U. after   16 cycles
 SCF Done:  E(RPM6D3) = -0.226861832169     A.U. after   16 cycles
 SCF Done:  E(RPM6D3) = -0.227609744982     A.U. after   12 cycles
 SCF Done:  E(RPM6D3) = -0.227610288592     A.U. after   12 cycles
 SCF Done:  E(RPM6D3) = -0.227610813501     A.U. after   13 cycles
 SCF Done:  E(RPM6D3) = -0.227611004074     A.U. after   11 cycles
 SCF Done:  E(RPM6D3) = -0.227611083040     A.U. after   11 cycles
 SCF Done:  E(RPM6D3) = -0.227611119319     A.U. after   11 cycles
 SCF Done:  E(RPM6D3) = -0.227611196351     A.U. after   11 cycles
 SCF Done:  E(RPM6D3) = -0.227611289793     A.U. after   11 cycles
 SCF Done:  E(RPM6D3) = -0.227611347984     A.U. after   11 cycles
 Optimization completed.
    -- Stationary point found.
 Normal termination of Gaussian 09 at Fri Aug 21 00:58:14 2020.

 -------------------------------------------------------------
 #N Geom=AllCheck Guess=TCheck SCRF=Check GenChk RPM6/ZDO Freq
 -------------------------------------------------------------

 Structure from the checkpoint file:  "sm_2H2O_claisen_PM6_toluene_water_1.chk"
 -------------------
 Title Card Required
 -------------------
 Charge =  0 Multiplicity = 1

                         Standard orientation:
 ---------------------------------------------------------------------
 Center     Atomic      Atomic             Coordinates (Angstroms)
 Number     Number       Type             X           Y           Z
 ---------------------------------------------------------------------
      1          6           0       -2.690101    2.472357    0.847458
      2          6           0       -2.972067    1.251542    0.279311
      3          6           0       -1.916355    0.364915   -0.088003
      4          6           0       -0.574491    0.770708    0.135957
      5          6           0       -0.309841    2.037274    0.734631
      6          6           0       -1.345341    2.870798    1.082157
      7          1           0       -3.496925    3.152697    1.129312
      8          1           0       -4.008628    0.956916    0.108918
      9          1           0        0.731203    2.319932    0.913757
     10          1           0       -1.153789    3.841582    1.541296
     11          6           0        0.494582   -0.128706   -0.245502
     12          6           0       -2.138041   -0.930092   -0.661507
     13          6           0        0.235125   -1.375701   -0.773587
     14          1           0        1.037577   -2.061970   -1.047993
     15          6           0       -1.107325   -1.775076   -0.992119
     16          1           0       -1.296494   -2.761068   -1.425569
     17          8           0        1.723728    0.412408   -0.012005
     18         17           0       -3.757884   -1.449623   -0.945985
     19          6           0        2.996612   -0.361653   -0.179183
     20          6           0        2.979189   -1.583699    0.706363
     21          1           0        3.531723   -2.437263    0.304331
     22          6           0        3.175469   -0.685676   -1.652946
     23          1           0        4.218909   -0.947508   -1.880660
     24          1           0        2.558665   -1.534164   -1.982677
     25          1           0        2.914424    0.165504   -2.295728
     26          6           0        3.983450    0.686763    0.326371
     27          1           0        3.620456    1.165663    1.247897
     28          1           0        4.956854    0.233810    0.559164
     29          1           0        4.162935    1.485404   -0.403798
     30          6           0        2.381213   -1.632138    1.893381
     31          1           0        2.391311   -2.510873    2.526146
     32          1           0        1.833268   -0.800985    2.322732
     33          8           0       -0.858611   -1.705871    2.459671
     34          1           0       -0.387895   -2.044521    1.694565
     35          1           0       -1.359660   -0.946682    2.158097
     36          8           0        1.814511    2.679039   -1.772357
     37          1           0        1.042304    2.333775   -2.220010
     38          1           0        1.998288    2.059037   -1.047198
 ---------------------------------------------------------------------

 SCF Done:  E(RPM6D3) = -0.227611347991     A.U. after    2 cycles

 The electronic state is 1-A.
 Alpha  occ. eigenvalues --   -1.14676  -1.13308  -1.11092  -1.10291  -1.08519
 Alpha  occ. eigenvalues --   -1.06991  -1.01048  -0.98098  -0.96842  -0.96526
 Alpha  occ. eigenvalues --   -0.93188  -0.90206  -0.83071  -0.82220  -0.80023
 Alpha  occ. eigenvalues --   -0.78362  -0.72529  -0.69749  -0.69312  -0.66597
 Alpha  occ. eigenvalues --   -0.66170  -0.64104  -0.61757  -0.60951  -0.58750
 Alpha  occ. eigenvalues --   -0.56827  -0.56105  -0.55685  -0.55001  -0.54370
 Alpha  occ. eigenvalues --   -0.53589  -0.52669  -0.52374  -0.51727  -0.51061
 Alpha  occ. eigenvalues --   -0.50186  -0.49761  -0.49201  -0.47974  -0.47507
 Alpha  occ. eigenvalues --   -0.46618  -0.45358  -0.45192  -0.44972  -0.44449
 Alpha  occ. eigenvalues --   -0.43853  -0.41565  -0.41491  -0.39778  -0.38731
 Alpha  occ. eigenvalues --   -0.37043  -0.32782
 Alpha virt. eigenvalues --   -0.03423  -0.02581   0.01151   0.01535   0.02285
 Alpha virt. eigenvalues --    0.04056   0.04584   0.08335   0.10975   0.11911
 Alpha virt. eigenvalues --    0.12296   0.12651   0.13020   0.13730   0.14227

 Mulliken charges:
               1
     1  C   -0.083192
     2  C   -0.204346
     3  C    0.075228
     4  C   -0.151016
     5  C   -0.095792
     6  C   -0.176815
     7  H    0.159714
     8  H    0.174602
     9  H    0.167286
    10  H    0.166320
    11  C    0.346881
    12  C   -0.114384
    13  C   -0.392649
    14  H    0.197935
    15  C   -0.044062
    16  H    0.171576
    17  O   -0.481901
    18  Cl  -0.089496
    19  C    0.455528
    20  C   -0.245833
    21  H    0.170535
    22  C   -0.588873
    23  H    0.190350
    24  H    0.183442
    25  H    0.184320
    26  C   -0.555585
    27  H    0.186820
    28  H    0.187610
    29  H    0.178827
    30  C   -0.272024
    31  H    0.158215
    32  H    0.158233
    33  O   -0.664213
    34  H    0.329821
    35  H    0.329154
    36  O   -0.678516
    37  H    0.327887
    38  H    0.338415
 Sum of Mulliken charges =   0.00000

 Dipole moment (field-independent basis, Debye):
    X=              3.1538    Y=             -1.0877    Z=             -0.9608  Tot=              3.4717
 N-N= 8.557853009517D+02 E-N=-1.576010957250D+03  KE=-6.736482392310D+01
  Exact polarizability: 265.774  -6.597 217.264  -5.431  59.071 114.327
 Approx polarizability: 154.469  -4.215 131.338  -4.020  37.725  66.808
 PrsmSu:  requested number of processors reduced to:   1 ShMem   1 Linda.
 D2PCM: C-PCM CHGder 2nd derivatives, FixD1E=F FixD2E=F DoIter=F DoCFld=F I1PDM=0
 Calling FoFJK, ICntrl=    100127 FMM=F ISym2X=0 I1Cent= 0 IOpClX= 0 NMat=1 NMatS=1 NMatT=0.
 CoulSu:  requested number of processors reduced to:   2 ShMem   1 Linda.
 Full mass-weighted force constant matrix:
 Low frequencies ---   -7.3807   -1.8536   -0.1753   -0.0635    0.4485    3.8864
 Low frequencies ---   22.4476   28.9729   38.0032

                      1                      2                      3
                      A                      A                      A
 Frequencies --     22.0840                28.8298                37.9895
 Red. masses --      6.0655                 7.6792                 4.5429
 Frc consts  --      0.0017                 0.0038                 0.0039
 IR Inten    --     11.5767                 2.5502                 0.5241

                      4                      5                      6
                      A                      A                      A
 Frequencies --     39.4811                52.4650                63.9888
 Red. masses --      4.4170                 4.1949                 6.1159
 Frc consts  --      0.0041                 0.0068                 0.0148
 IR Inten    --      1.2143                 2.4066                 7.7256

                      7                      8                      9
                      A                      A                      A
 Frequencies --     79.4763                90.0242                98.2778
 Red. masses --      2.0537                 2.9994                 1.3960
 Frc consts  --      0.0076                 0.0143                 0.0079
 IR Inten    --    116.0555                11.1610                90.3377

                     10                     11                     12
                      A                      A                      A
 Frequencies --    101.2485               105.7490               109.7865
 Red. masses --      2.2953                 1.6990                 2.1439
 Frc consts  --      0.0139                 0.0112                 0.0152
 IR Inten    --     20.4894                 9.4127                 3.6017

                     13                     14                     15
                      A                      A                      A
 Frequencies --    112.6769               130.5287               151.9976
 Red. masses --      2.2275                 4.2063                 1.2711
 Frc consts  --      0.0167                 0.0422                 0.0173
 IR Inten    --      6.6876                 5.4586                42.0093

                     16                     17                     18
                      A                      A                      A
 Frequencies --    170.2627               173.8112               191.0056
 Red. masses --      1.3997                 2.1893                 3.0764
 Frc consts  --      0.0239                 0.0390                 0.0661
 IR Inten    --     38.2708                 7.3288                13.4086

                     19                     20                     21
                      A                      A                      A
 Frequencies --    201.2387               205.6527               212.2704
 Red. masses --      1.0731                 1.5379                 1.0808
 Frc consts  --      0.0256                 0.0383                 0.0287
 IR Inten    --     93.7358                65.4276               140.3016

                     22                     23                     24
                      A                      A                      A
 Frequencies --    215.6987               256.1457               282.8699
 Red. masses --      3.8249                 3.8195                 3.4594
 Frc consts  --      0.1048                 0.1476                 0.1631
 IR Inten    --      9.3410                 6.8494                 9.4326

                     25                     26                     27
                      A                      A                      A
 Frequencies --    300.9450               320.1544               337.8554
 Red. masses --      2.4351                 3.9730                 1.0758
 Frc consts  --      0.1299                 0.2399                 0.0724
 IR Inten    --      0.8859                 3.3468               268.7343

                     28                     29                     30
                      A                      A                      A
 Frequencies --    366.5324               379.3960               411.4344
 Red. masses --      2.9487                 2.7078                 3.6361
 Frc consts  --      0.2334                 0.2296                 0.3627
 IR Inten    --      1.9916                11.0158                 3.1740

                     31                     32                     33
                      A                      A                      A
 Frequencies --    418.5491               430.4525               467.1904
 Red. masses --      2.8021                 3.5822                 4.9959
 Frc consts  --      0.2892                 0.3911                 0.6425
 IR Inten    --      2.1068                 1.5787                 2.4357

                     34                     35                     36
                      A                      A                      A
 Frequencies --    516.4044               535.7065               539.2458
 Red. masses --      5.1886                 3.6876                 3.1675
 Frc consts  --      0.8152                 0.6235                 0.5427
 IR Inten    --      3.4767                 2.7998                 5.3495

                     37                     38                     39
                      A                      A                      A
 Frequencies --    580.1282               599.6343               649.5745
 Red. masses --      3.7418                 3.6207                 2.2774
 Frc consts  --      0.7420                 0.7670                 0.5662
 IR Inten    --      5.9324                10.4183                 2.7514

                     40                     41                     42
                      A                      A                      A
 Frequencies --    674.6422               744.7550               756.0793
 Red. masses --      3.9213                 3.8231                 6.7775
 Frc consts  --      1.0515                 1.2494                 2.2827
 IR Inten    --     50.0843                10.2314                 3.1232

                     43                     44                     45
                      A                      A                      A
 Frequencies --    792.4544               803.2829               841.5680
 Red. masses --      4.9810                 1.2999                 1.6350
 Frc consts  --      1.8430                 0.4942                 0.6822
 IR Inten    --      5.5240               101.2233               114.9722

                     46                     47                     48
                      A                      A                      A
 Frequencies --    847.1453               862.7420               899.0590
 Red. masses --      2.7135                 2.3354                 1.5105
 Frc consts  --      1.1473                 1.0242                 0.7194
 IR Inten    --     47.6973                85.5113                 4.4933

                     49                     50                     51
                      A                      A                      A
 Frequencies --    945.2833               945.6005               952.2893
 Red. masses --      1.3420                 1.4576                 1.5162
 Frc consts  --      0.7065                 0.7679                 0.8101
 IR Inten    --      2.2749                 8.6136                 8.1119

                     52                     53                     54
                      A                      A                      A
 Frequencies --    959.7797               962.4551               965.7343
 Red. masses --      1.4914                 3.4908                 1.7543
 Frc consts  --      0.8094                 1.9052                 0.9640
 IR Inten    --      4.0450               240.1118                33.9662

                     55                     56                     57
                      A                      A                      A
 Frequencies --    973.0044               987.4250              1021.7561
 Red. masses --      1.3106                 1.6775                 1.4671
 Frc consts  --      0.7310                 0.9636                 0.9024
 IR Inten    --      6.2498                 1.8438               166.8276

                     58                     59                     60
                      A                      A                      A
 Frequencies --   1052.1103              1099.2974              1106.6831
 Red. masses --      1.3406                 4.6567                 2.2243
 Frc consts  --      0.8743                 3.3156                 1.6051
 IR Inten    --     58.9729               339.5909               236.1005

                     61                     62                     63
                      A                      A                      A
 Frequencies --   1131.4136              1150.3185              1178.1368
 Red. masses --      2.3412                 1.5090                 1.2857
 Frc consts  --      1.7658                 1.1764                 1.0514
 IR Inten    --    691.1247                 8.7137                 5.6731

                     64                     65                     66
                      A                      A                      A
 Frequencies --   1203.9022              1208.1726              1211.6976
 Red. masses --      1.2886                 1.1395                 1.3191
 Frc consts  --      1.1004                 0.9800                 1.1411
 IR Inten    --     36.0510               111.1115                48.9732

                     67                     68                     69
                      A                      A                      A
 Frequencies --   1212.2349              1222.6571              1225.5206
 Red. masses --      1.1374                 1.0591                 1.0640
 Frc consts  --      0.9848                 0.9328                 0.9415
 IR Inten    --    104.0634                19.4288               101.1659

                     70                     71                     72
                      A                      A                      A
 Frequencies --   1240.1695              1264.5292              1281.1811
 Red. masses --      1.7432                 1.7819                 2.3645
 Frc consts  --      1.5797                 1.6788                 2.2867
 IR Inten    --    110.7555                70.3857                82.9914

                     73                     74                     75
                      A                      A                      A
 Frequencies --   1288.0824              1289.0466              1314.5305
 Red. masses --      1.3261                 1.4727                 1.1686
 Frc consts  --      1.2963                 1.4418                 1.1898
 IR Inten    --     34.0638               178.8927               113.6781

                     76                     77                     78
                      A                      A                      A
 Frequencies --   1316.7761              1334.8498              1359.4955
 Red. masses --      1.3556                 1.4330                 3.1822
 Frc consts  --      1.3849                 1.5043                 3.4652
 IR Inten    --     26.2303                44.0146               151.1622

                     79                     80                     81
                      A                      A                      A
 Frequencies --   1377.2537              1385.3713              1392.7432
 Red. masses --      2.2114                 1.2323                 1.4028
 Frc consts  --      2.4714                 1.3934                 1.6033
 IR Inten    --    351.5805               157.3908               125.4801

                     82                     83                     84
                      A                      A                      A
 Frequencies --   1420.8288              1460.9688              1489.4001
 Red. masses --      2.6668                 6.2653                 5.6220
 Frc consts  --      3.1719                 7.8790                 7.3480
 IR Inten    --    157.5084                44.4031               129.8188

                     85                     86                     87
                      A                      A                      A
 Frequencies --   1544.2186              1620.2456              1669.0850
 Red. masses --      8.5905                11.1136                10.5896
 Frc consts  --     12.0694                17.1897                17.3815
 IR Inten    --     54.1689               131.3452               153.8340

                     88                     89                     90
                      A                      A                      A
 Frequencies --   1674.9833              1789.5293              2438.7901
 Red. masses --     10.1239                 8.8370                 1.0816
 Frc consts  --     16.7348                16.6737                 3.7901
 IR Inten    --     80.7776                 9.5335               486.7547

                     91                     92                     93
                      A                      A                      A
 Frequencies --   2474.5202              2592.7241              2594.9090
 Red. masses --      1.0842                 1.0223                 1.0184
 Frc consts  --      3.9116                 4.0490                 4.0404
 IR Inten    --    319.5716               109.8910                69.5016

                     94                     95                     96
                      A                      A                      A
 Frequencies --   2668.8342              2679.3488              2680.9313
 Red. masses --      1.0868                 1.0866                 1.0868
 Frc consts  --      4.5607                 4.5959                 4.6023
 IR Inten    --    118.9901                64.4307               178.2239

                     97                     98                     99
                      A                      A                      A
 Frequencies --   2683.2048              2709.0097              2726.9803
 Red. masses --      1.0876                 1.0861                 1.0711
 Frc consts  --      4.6136                 4.6962                 4.6929
 IR Inten    --    150.1573                38.5984                16.4107

                    100                    101                    102
                      A                      A                      A
 Frequencies --   2727.7537              2733.2433              2737.2104
 Red. masses --      1.0714                 1.0702                 1.0754
 Frc consts  --      4.6970                 4.7107                 4.7472
 IR Inten    --    317.1370                38.0109               688.1557

                    103                    104                    105
                      A                      A                      A
 Frequencies --   2739.3170              2741.2261              2752.0487
 Red. masses --      1.0814                 1.0720                 1.0790
 Frc consts  --      4.7812                 4.7459                 4.8150
 IR Inten    --    135.1873               283.6780               196.4941

                    106                    107                    108
                      A                      A                      A
 Frequencies --   2773.2753              2782.4292              2787.5791
 Red. masses --      1.0549                 1.0313                 1.0324
 Frc consts  --      4.7800                 4.7040                 4.7266
 IR Inten    --    165.9541                60.8653                74.2659

 - Thermochemistry -
 -------------------
 Temperature   298.150 Kelvin.  Pressure   1.00000 Atm.
 Atom     1 has atomic number  6 and mass  12.00000

 Molecular mass:   282.10227 amu.
 Principal axes and moments of inertia in atomic units:
                           1         2         3
     Eigenvalues --  3840.962267321.946878555.79815
           X            0.99959  -0.02490  -0.01405
           Y            0.02492   0.99969   0.00125
           Z            0.01401  -0.00160   0.99990
 This molecule is an asymmetric top.
 Rotational symmetry number  1.
 Warning -- assumption of classical behavior for rotation
           may cause significant error
 Rotational temperatures (Kelvin)      0.02255     0.01183     0.01012
 Rotational constants (GHZ):           0.46987     0.24648     0.21094
 Zero-point vibrational energy     714533.0 (Joules/Mol)
                                  170.77748 (Kcal/Mol)
 Warning -- explicit consideration of  38 degrees of freedom as
           vibrations may cause significant error
 Vibrational temperatures:     31.77    41.48    54.66    56.80    75.49
          (Kelvin)             92.07   114.35   129.52   141.40   145.67
                              152.15   157.96   162.12   187.80   218.69
                              244.97   250.08   274.81   289.54   295.89
                              305.41   310.34   368.54   406.99   432.99
                              460.63   486.10   527.36   545.87   591.96
                              602.20   619.32   672.18   742.99   770.76
                              775.85   834.67   862.74   934.59   970.66
                             1071.53  1087.83  1140.16  1155.74  1210.83
                             1218.85  1241.29  1293.54  1360.05  1360.51
                             1370.13  1380.91  1384.76  1389.47  1399.93
                             1420.68  1470.08  1513.75  1581.64  1592.27
                             1627.85  1655.05  1695.07  1732.14  1738.29
                             1743.36  1744.13  1759.13  1763.25  1784.33
                             1819.37  1843.33  1853.26  1854.65  1891.31
                             1894.54  1920.55  1956.01  1981.56  1993.24
                             2003.84  2044.25  2102.01  2142.91  2221.78
                             2331.17  2401.44  2409.92  2574.73  3508.87
                             3560.28  3730.35  3733.49  3839.85  3854.98
                             3857.26  3860.53  3897.66  3923.51  3924.62
                             3932.52  3938.23  3941.26  3944.01  3959.58
                             3990.12  4003.29  4010.70

 Zero-point correction=                           0.272151 (Hartree/Particle)
 Thermal correction to Energy=                    0.297019
 Thermal correction to Enthalpy=                  0.297963
 Thermal correction to Gibbs Free Energy=         0.215538
 Sum of electronic and zero-point Energies=              0.044540
 Sum of electronic and thermal Energies=                 0.069408
 Sum of electronic and thermal Enthalpies=               0.070352
 Sum of electronic and thermal Free Energies=           -0.012073

                     E (Thermal)             CV                S
                      KCal/Mol        Cal/Mol-Kelvin    Cal/Mol-Kelvin
 Total                  186.382             86.376            173.478
 Electronic               0.000              0.000              0.000
 Translational            0.889              2.981             42.809
 Rotational               0.889              2.981             33.842
 Vibrational            184.605             80.414             96.827
 Vibration     1          0.593              1.985              6.437
 Vibration     2          0.593              1.984              5.908
 Vibration     3          0.594              1.982              5.361
 Vibration     4          0.594              1.981              5.285
 Vibration     5          0.596              1.977              4.722
 Vibration     6          0.597              1.971              4.330
 Vibration     7          0.600              1.963              3.904
 Vibration     8          0.602              1.956              3.660
 Vibration     9          0.604              1.950              3.488
 Vibration    10          0.604              1.948              3.430
 Vibration    11          0.605              1.945              3.345
 Vibration    12          0.606              1.941              3.273
 Vibration    13          0.607              1.939              3.222
 Vibration    14          0.612              1.923              2.938
 Vibration    15          0.619              1.900              2.647
 Vibration    16          0.625              1.879              2.433
 Vibration    17          0.627              1.875              2.394
 Vibration    18          0.634              1.852              2.218
 Vibration    19          0.638              1.838              2.122
 Vibration    20          0.640              1.832              2.082
 Vibration    21          0.643              1.822              2.024
 Vibration    22          0.645              1.817              1.995
 Vibration    23          0.666              1.752              1.688
 Vibration    24          0.682              1.705              1.516
 Vibration    25          0.693              1.672              1.412
 Vibration    26          0.706              1.635              1.309
 Vibration    27          0.718              1.600              1.222
 Vibration    28          0.739              1.541              1.094
 Vibration    29          0.749              1.514              1.042
 Vibration    30          0.775              1.445              0.922
 Vibration    31          0.781              1.430              0.897
 Vibration    32          0.792              1.404              0.857
 Vibration    33          0.824              1.323              0.745
 Vibration    34          0.871              1.214              0.618
 Vibration    35          0.891              1.171              0.575
 Vibration    36          0.894              1.163              0.567
 Vibration    37          0.937              1.074              0.485
 Vibration    38          0.958              1.033              0.450

 Optimization completed.
    -- Stationary point found.
 Normal termination of Gaussian 09 at Fri Aug 21 00:58:29 2020.
