 Gaussian 09, Revision D.01,
 Gaussian 09:  ES64L-G09RevD.01 24-Apr-2013

 ----------------------------------------------------------------------
 # freq pm6 scrf=(cpcm,solvent=toluene) geom=connectivity empiricaldisp
 ersion=gd3
 ----------------------------------------------------------------------

 -------------------
 Title Card Required
 -------------------
 Symbolic Z-matrix:
 Charge =  0 Multiplicity = 1

                         Standard orientation:
 ---------------------------------------------------------------------
 Center     Atomic      Atomic             Coordinates (Angstroms)
 Number     Number       Type             X           Y           Z
 ---------------------------------------------------------------------
      1          6           0        2.262674    1.132796    0.679210
      2          6           0        1.538170   -0.109367    0.832545
      3          6           0        0.230569    0.000804    0.346609
      4          6           0        0.042290    1.481512   -0.034969
      5          1           0        1.954486   -0.952505    1.353262
      6          1           0       -0.619358   -0.542576    0.763908
      7          6           0        1.596855    3.506548   -0.152826
      8          1           0        0.716502    4.151354    0.043922
      9          1           0        2.431690    3.852485    0.483320
     10          1           0        1.890382    3.634504   -1.209069
     11          7           0        1.292641    2.096345    0.140716
     12          8           0       -0.975961    2.037624   -0.412950
     13          8           0        3.407854    1.465506    0.915869
     14          6           0        1.874181   -2.411813   -0.989869
     15          1           0        2.081091   -3.447537   -0.695207
     16          6           0        0.514924   -2.067027   -1.181000
     17          1           0       -0.232606   -2.865826   -1.020815
     18          6           0        2.900392   -1.512322   -1.072989
     19          1           0        2.737765   -0.494062   -1.448402
     20          6           0        4.292453   -1.847169   -0.725693
     21          1           0        4.535729   -1.496237    0.308022
     22          1           0        4.510279   -2.925000   -0.725775
     23          1           0        5.026459   -1.358176   -1.382928
     24          6           0        0.058301   -0.765644   -1.425124
     25          1           0        0.731214   -0.055476   -1.933600
     26          6           0       -1.385419   -0.581514   -1.831145
     27          1           0       -1.605315   -1.043877   -2.814115
     28          1           0       -1.691311    0.482013   -1.843121
     29          6           0       -3.228023   -0.815692   -0.159332
     30          6           0       -3.731350    0.540773   -0.436968
     31          1           0       -4.192444    0.629366   -1.433867
     32          1           0       -4.511556    0.842388    0.293946
     33          1           0       -2.937347    1.315607   -0.376544
     34          8           0       -2.194369   -1.356818   -0.897928
     35          8           0       -3.630020   -1.600718    0.686029
     36          1           0        4.412222    0.181325    1.853621
     37          1           0       -1.766699    3.951595    0.131618
     38          1           0       -1.948789   -2.909774    0.650108
     39          1           0       -5.069372   -0.847108    1.818549
     40          8           0       -1.175160   -3.454650    0.874879
     41          1           0       -1.465610   -4.058371    1.553861
     42          8           0       -5.614888   -0.067925    2.010581
     43          1           0       -6.239164   -0.331786    2.679984
     44          8           0       -1.425708    4.491093   -0.588403
     45          1           0       -1.133688    3.856482   -1.255535
     46          8           0        4.845672   -0.656654    2.106596
     47          1           0        5.641486   -0.414208    2.571747
 ---------------------------------------------------------------------

 SCF Done:  E(RPM6D3) = -0.581082555160     A.U. after   18 cycles

 The electronic state is 1-A.
 Alpha  occ. eigenvalues --   -1.23388  -1.19459  -1.18689  -1.15435  -1.14063
 Alpha  occ. eigenvalues --   -1.10247  -1.10166  -1.09940  -1.09759  -1.09121
 Alpha  occ. eigenvalues --   -1.04538  -1.02551  -0.99773  -0.96389  -0.90378
 Alpha  occ. eigenvalues --   -0.88439  -0.85555  -0.81611  -0.77563  -0.77345
 Alpha  occ. eigenvalues --   -0.73557  -0.70040  -0.69403  -0.68732  -0.68408
 Alpha  occ. eigenvalues --   -0.67673  -0.67008  -0.64811  -0.63974  -0.63386
 Alpha  occ. eigenvalues --   -0.61925  -0.60586  -0.60101  -0.58615  -0.57550
 Alpha  occ. eigenvalues --   -0.56339  -0.55355  -0.55085  -0.54470  -0.53338
 Alpha  occ. eigenvalues --   -0.53118  -0.52978  -0.52771  -0.52366  -0.51853
 Alpha  occ. eigenvalues --   -0.51697  -0.51228  -0.50950  -0.50683  -0.50357
 Alpha  occ. eigenvalues --   -0.49133  -0.48521  -0.47635  -0.46536  -0.43906
 Alpha  occ. eigenvalues --   -0.43846  -0.43604  -0.43426  -0.43410  -0.42990
 Alpha  occ. eigenvalues --   -0.42689  -0.40203  -0.39866  -0.38456  -0.33180
 Alpha virt. eigenvalues --   -0.06943  -0.01958   0.00517   0.02041   0.02405
 Alpha virt. eigenvalues --    0.02707   0.03950   0.05625   0.08030   0.08640
 Alpha virt. eigenvalues --    0.10707   0.11202   0.11940   0.12134   0.12767

 Mulliken charges:
               1
     1  C    0.678934
     2  C   -0.604072
     3  C    0.028817
     4  C    0.567996
     5  H    0.216299
     6  H    0.175882
     7  C   -0.268648
     8  H    0.177711
     9  H    0.170386
    10  H    0.154659
    11  N   -0.473692
    12  O   -0.586797
    13  O   -0.565016
    14  C   -0.383556
    15  H    0.191002
    16  C    0.152413
    17  H    0.173761
    18  C    0.196051
    19  H    0.135072
    20  C   -0.571263
    21  H    0.232727
    22  H    0.186640
    23  H    0.186342
    24  C   -0.349698
    25  H    0.184656
    26  C    0.020908
    27  H    0.151159
    28  H    0.156774
    29  C    0.720166
    30  C   -0.659800
    31  H    0.217627
    32  H    0.235793
    33  H    0.237090
    34  O   -0.491238
    35  O   -0.559349
    36  H    0.342675
    37  H    0.327209
    38  H    0.339067
    39  H    0.337915
    40  O   -0.668986
    41  H    0.321157
    42  O   -0.669030
    43  H    0.321366
    44  O   -0.663711
    45  H    0.329768
    46  O   -0.673744
    47  H    0.320580
 Sum of Mulliken charges =   0.00000

 Dipole moment (field-independent basis, Debye):
    X=              1.2858    Y=             -3.0038    Z=             -3.6708  Tot=              4.9143
 N-N= 1.200062546385D+03 E-N=-2.227106054082D+03  KE=-8.520307300300D+01
  Exact polarizability: 244.259  -6.303 211.011   5.764  27.889 134.358
 Approx polarizability: 154.792   2.316 119.229  10.016   1.758  82.096
 D2PCM: C-PCM CHGder 2nd derivatives, FixD1E=F FixD2E=F DoIter=F DoCFld=F I1PDM=0
 CoulSu:  requested number of processors reduced to:   3 ShMem   1 Linda.
 Calling FoFJK, ICntrl=    100127 FMM=F ISym2X=0 I1Cent= 0 IOpClX= 0 NMat=1 NMatS=1 NMatT=0.
 Full mass-weighted force constant matrix:
 Low frequencies --- -717.0647   -2.9279   -0.9739   -0.0556    0.2193    0.6657
 Low frequencies ---    2.5232   11.0058   16.8432
 ******    1 imaginary frequencies (negative Signs) ******

                      1                      2                      3
                      A                      A                      A
 Frequencies --   -717.0647                10.8455                16.7734
 Red. masses --      8.1848                 6.6055                 6.6240
 Frc consts  --      2.4796                 0.0005                 0.0011
 IR Inten    --   2641.0499                 0.8119                 3.0301

                      4                      5                      6
                      A                      A                      A
 Frequencies --     17.7542                24.7934                28.5556
 Red. masses --      5.6481                 5.5160                 5.0187
 Frc consts  --      0.0010                 0.0020                 0.0024
 IR Inten    --      0.6317                 1.2677                 0.9645

                      7                      8                      9
                      A                      A                      A
 Frequencies --     41.2409                49.9030                52.7948
 Red. masses --      5.2783                 5.4736                 8.2939
 Frc consts  --      0.0053                 0.0080                 0.0136
 IR Inten    --      5.8505                 1.0061                 0.5015

                     10                     11                     12
                      A                      A                      A
 Frequencies --     66.1809                71.0732                74.1918
 Red. masses --      4.0139                 5.6067                 3.8016
 Frc consts  --      0.0104                 0.0167                 0.0123
 IR Inten    --      6.8929                18.0382                18.1636

                     13                     14                     15
                      A                      A                      A
 Frequencies --     78.1195                81.1672                91.6875
 Red. masses --      2.0482                 1.7386                 3.1023
 Frc consts  --      0.0074                 0.0067                 0.0154
 IR Inten    --      4.3540                 6.0942                 0.3211

                     16                     17                     18
                      A                      A                      A
 Frequencies --     99.4916               102.0318               105.1032
 Red. masses --      2.1221                 1.8509                 1.6998
 Frc consts  --      0.0124                 0.0114                 0.0111
 IR Inten    --     36.5615                 2.4441                64.1135

                     19                     20                     21
                      A                      A                      A
 Frequencies --    110.1245               119.9306               120.2993
 Red. masses --      1.8230                 3.2528                 2.2797
 Frc consts  --      0.0130                 0.0276                 0.0194
 IR Inten    --      3.7826                 1.5369                24.4606

                     22                     23                     24
                      A                      A                      A
 Frequencies --    123.9614               130.5597               138.5954
 Red. masses --      1.7707                 1.4521                 3.0061
 Frc consts  --      0.0160                 0.0146                 0.0340
 IR Inten    --     26.6625                12.5517                35.2780

                     25                     26                     27
                      A                      A                      A
 Frequencies --    142.7435               147.0419               168.8713
 Red. masses --      1.5405                 3.9441                 1.9894
 Frc consts  --      0.0185                 0.0502                 0.0334
 IR Inten    --     97.1727                 5.6393                63.8064

                     28                     29                     30
                      A                      A                      A
 Frequencies --    179.7230               182.4693               192.2864
 Red. masses --      1.3632                 3.0339                 4.8149
 Frc consts  --      0.0259                 0.0595                 0.1049
 IR Inten    --      6.3086                 8.7783                 0.9504

                     31                     32                     33
                      A                      A                      A
 Frequencies --    204.2843               218.3057               221.8402
 Red. masses --      2.8720                 1.4639                 2.8251
 Frc consts  --      0.0706                 0.0411                 0.0819
 IR Inten    --     54.0446                72.1323                18.4330

                     34                     35                     36
                      A                      A                      A
 Frequencies --    242.1013               255.7139               262.6349
 Red. masses --      2.2129                 1.5129                 1.2449
 Frc consts  --      0.0764                 0.0583                 0.0506
 IR Inten    --     50.1450               148.5866                60.8499

                     37                     38                     39
                      A                      A                      A
 Frequencies --    273.3177               273.8685               280.8780
 Red. masses --      1.1876                 1.5104                 2.3054
 Frc consts  --      0.0523                 0.0667                 0.1072
 IR Inten    --    265.8041                64.8877                 9.6578

                     40                     41                     42
                      A                      A                      A
 Frequencies --    295.4533               318.0661               334.5601
 Red. masses --      1.1018                 2.3199                 1.1012
 Frc consts  --      0.0567                 0.1383                 0.0726
 IR Inten    --    159.0304                14.3363               192.2825

                     43                     44                     45
                      A                      A                      A
 Frequencies --    353.8634               359.6032               378.8475
 Red. masses --      2.1783                 1.1602                 2.5942
 Frc consts  --      0.1607                 0.0884                 0.2194
 IR Inten    --     18.1146               263.1872               144.9238

                     46                     47                     48
                      A                      A                      A
 Frequencies --    387.4684               389.4272               403.8386
 Red. masses --      1.8319                 2.7537                 2.2344
 Frc consts  --      0.1620                 0.2460                 0.2147
 IR Inten    --     96.7069                83.6599               172.1771

                     49                     50                     51
                      A                      A                      A
 Frequencies --    444.4205               517.2791               542.4690
 Red. masses --      3.8294                 4.4995                 3.1886
 Frc consts  --      0.4456                 0.7094                 0.5528
 IR Inten    --      4.6068                35.9177                 9.4680

                     52                     53                     54
                      A                      A                      A
 Frequencies --    549.6345               562.2354               570.2183
 Red. masses --      8.7663                 5.6604                 4.7719
 Frc consts  --      1.5603                 1.0542                 0.9142
 IR Inten    --      2.9134               122.5985                36.4103

                     55                     56                     57
                      A                      A                      A
 Frequencies --    630.6822               645.9556               681.0387
 Red. masses --      5.6957                 5.0855                 4.4391
 Frc consts  --      1.3348                 1.2502                 1.2131
 IR Inten    --     31.5940                34.4927                14.2748

                     58                     59                     60
                      A                      A                      A
 Frequencies --    684.4714               814.4045               842.6954
 Red. masses --      4.5525                 1.3253                 5.4135
 Frc consts  --      1.2566                 0.5179                 2.2650
 IR Inten    --     38.1251                 9.3867                35.5823

                     61                     62                     63
                      A                      A                      A
 Frequencies --    851.2704               871.4462               907.8741
 Red. masses --      1.6425                 2.4831                 1.2033
 Frc consts  --      0.7013                 1.1110                 0.5843
 IR Inten    --    242.1038                28.4901                20.1925

                     64                     65                     66
                      A                      A                      A
 Frequencies --    941.8703               950.8789               967.6771
 Red. masses --      1.6972                 1.4511                 1.8148
 Frc consts  --      0.8871                 0.7731                 1.0012
 IR Inten    --    202.5430               441.6601               130.4195

                     67                     68                     69
                      A                      A                      A
 Frequencies --    978.5834               996.2257              1002.5372
 Red. masses --      1.3510                 1.5191                 1.5500
 Frc consts  --      0.7623                 0.8883                 0.9179
 IR Inten    --     47.0987                29.0184                 6.7894

                     70                     71                     72
                      A                      A                      A
 Frequencies --   1023.5868              1038.7939              1048.7809
 Red. masses --      1.6284                 1.7678                 1.8995
 Frc consts  --      1.0052                 1.1239                 1.2310
 IR Inten    --    173.2025               100.3956                74.7969

                     73                     74                     75
                      A                      A                      A
 Frequencies --   1057.7682              1069.9542              1078.0049
 Red. masses --      1.3031                 2.0187                 1.4748
 Frc consts  --      0.8590                 1.3616                 1.0098
 IR Inten    --      7.2604                77.3711               136.5162

                     76                     77                     78
                      A                      A                      A
 Frequencies --   1088.7902              1106.2486              1139.2097
 Red. masses --      1.5777                 2.4856                 1.2446
 Frc consts  --      1.1020                 1.7922                 0.9516
 IR Inten    --     17.5857               339.7932                13.7010

                     79                     80                     81
                      A                      A                      A
 Frequencies --   1167.3990              1172.5745              1173.1892
 Red. masses --      1.7967                 1.0901                 1.0575
 Frc consts  --      1.4426                 0.8831                 0.8576
 IR Inten    --    147.3563               129.0990                60.9757

                     82                     83                     84
                      A                      A                      A
 Frequencies --   1182.3458              1189.4241              1196.8524
 Red. masses --      1.0631                 1.3413                 1.5274
 Frc consts  --      0.8756                 1.1180                 1.2891
 IR Inten    --    105.4912               207.3126               150.0883

                     85                     86                     87
                      A                      A                      A
 Frequencies --   1207.6751              1223.8140              1225.7289
 Red. masses --      1.7993                 1.4580                 1.0464
 Frc consts  --      1.5462                 1.2866                 0.9263
 IR Inten    --     38.2484                54.8082                46.0613

                     88                     89                     90
                      A                      A                      A
 Frequencies --   1238.6913              1245.4155              1254.7778
 Red. masses --      1.3298                 1.4057                 1.2325
 Frc consts  --      1.2021                 1.2846                 1.1433
 IR Inten    --     62.1050               435.0715               117.5562

                     91                     92                     93
                      A                      A                      A
 Frequencies --   1269.4498              1272.7206              1277.6589
 Red. masses --      1.7384                 1.7973                 1.3912
 Frc consts  --      1.6506                 1.7153                 1.3381
 IR Inten    --     59.1798                29.9037               233.5129

                     94                     95                     96
                      A                      A                      A
 Frequencies --   1286.7437              1295.9164              1312.6500
 Red. masses --      1.3098                 1.2452                 1.4961
 Frc consts  --      1.2777                 1.2321                 1.5188
 IR Inten    --      3.7887               244.0651               417.5215

                     97                     98                     99
                      A                      A                      A
 Frequencies --   1316.6603              1323.7894              1366.5281
 Red. masses --      1.6507                 1.2288                 3.9842
 Frc consts  --      1.6860                 1.2687                 4.3836
 IR Inten    --     50.9072                 2.0417                12.0358

                    100                    101                    102
                      A                      A                      A
 Frequencies --   1384.1571              1385.6154              1387.4290
 Red. masses --      1.1377                 1.1208                 1.1433
 Frc consts  --      1.2842                 1.2678                 1.2966
 IR Inten    --    276.9109               107.5381                87.8240

                    103                    104                    105
                      A                      A                      A
 Frequencies --   1404.8743              1427.1830              1449.5566
 Red. masses --      4.5769                 1.1258                 5.9211
 Frc consts  --      5.3223                 1.3510                 7.3304
 IR Inten    --    718.6717               200.4070               427.5468

                    106                    107                    108
                      A                      A                      A
 Frequencies --   1571.1283              1643.6816              1730.6379
 Red. masses --      8.8100                 7.9043                11.7234
 Frc consts  --     12.8130                12.5819                20.6879
 IR Inten    --    412.3866               276.0020              2277.1901

                    109                    110                    111
                      A                      A                      A
 Frequencies --   1755.6512              1813.2132              2421.7435
 Red. masses --     11.3513                12.0796                 1.0838
 Frc consts  --     20.6144                23.3992                 3.7449
 IR Inten    --    571.8905               333.2980               754.0044

                    112                    113                    114
                      A                      A                      A
 Frequencies --   2446.7016              2462.0168              2485.6505
 Red. masses --      1.0812                 1.0832                 1.0828
 Frc consts  --      3.8135                 3.8685                 3.9417
 IR Inten    --    670.6230               426.0093               334.5651

                    115                    116                    117
                      A                      A                      A
 Frequencies --   2573.5254              2583.8365              2595.7227
 Red. masses --      1.0455                 1.0243                 1.0220
 Frc consts  --      4.0797                 4.0290                 4.0569
 IR Inten    --    193.9987                42.6226                61.2787

                    118                    119                    120
                      A                      A                      A
 Frequencies --   2603.4953              2618.6553              2627.9238
 Red. masses --      1.0588                 1.0860                 1.0583
 Frc consts  --      4.2285                 4.3879                 4.3059
 IR Inten    --    130.8280               360.7513                59.2556

                    121                    122                    123
                      A                      A                      A
 Frequencies --   2631.4411              2645.6627              2650.0317
 Red. masses --      1.0886                 1.0460                 1.0847
 Frc consts  --      4.4412                 4.3137                 4.4880
 IR Inten    --     85.7445               100.6626               209.3002

                    124                    125                    126
                      A                      A                      A
 Frequencies --   2661.6518              2673.7526              2682.0767
 Red. masses --      1.0864                 1.0674                 1.0813
 Frc consts  --      4.5347                 4.4959                 4.5831
 IR Inten    --     81.1762               155.3614                69.4201

                    127                    128                    129
                      A                      A                      A
 Frequencies --   2699.7030              2701.1208              2707.1073
 Red. masses --      1.0477                 1.0730                 1.0746
 Frc consts  --      4.4989                 4.6124                 4.6399
 IR Inten    --     92.8576               107.4158                78.8554

                    130                    131                    132
                      A                      A                      A
 Frequencies --   2710.6624              2742.6062              2749.8687
 Red. masses --      1.0762                 1.0724                 1.0291
 Frc consts  --      4.6590                 4.7527                 4.5847
 IR Inten    --    120.7649               228.5290                54.6283

                    133                    134                    135
                      A                      A                      A
 Frequencies --   2760.9538              2770.2050              2776.6196
 Red. masses --      1.0351                 1.0428                 1.0697
 Frc consts  --      4.6488                 4.7150                 4.8590
 IR Inten    --    116.6217               129.1634               272.6198

 - Thermochemistry -
 -------------------
 Temperature   298.150 Kelvin.  Pressure   1.00000 Atm.
 Atom     1 has atomic number  6 and mass  12.00000

 Molecular mass:   323.15802 amu.
 Principal axes and moments of inertia in atomic units:
                           1         2         3
     Eigenvalues --  5964.24643********************
           X            0.99985  -0.01730  -0.00291
           Y            0.01727   0.99980  -0.00982
           Z            0.00308   0.00976   0.99995
 This molecule is an asymmetric top.
 Rotational symmetry number  1.
 Warning -- assumption of classical behavior for rotation
           may cause significant error
 Rotational temperatures (Kelvin)      0.01452     0.00837     0.00635
 Rotational constants (GHZ):           0.30259     0.17437     0.13232
    1 imaginary frequencies ignored.
 Zero-point vibrational energy     855110.2 (Joules/Mol)
                                  204.37624 (Kcal/Mol)
 Warning -- explicit consideration of  53 degrees of freedom as
           vibrations may cause significant error
 Vibrational temperatures:     15.60    24.13    25.54    35.67    41.09
          (Kelvin)             59.34    71.80    75.96    95.22   102.26
                              106.75   112.40   116.78   131.92   143.15
                              146.80   151.22   158.44   172.55   173.08
                              178.35   187.85   199.41   205.38   211.56
                              242.97   258.58   262.53   276.66   293.92
                              314.09   319.18   348.33   367.91   377.87
                              393.24   394.04   404.12   425.09   457.63
                              481.36   509.13   517.39   545.08   557.48
                              560.30   581.03   639.42   744.25   780.49
                              790.80   808.93   820.42   907.41   929.38
                              979.86   984.80  1171.74  1212.45  1224.79
                             1253.82  1306.23  1355.14  1368.10  1392.27
                             1407.96  1433.34  1442.43  1472.71  1494.59
                             1508.96  1521.89  1539.42  1551.01  1566.52
                             1591.64  1639.07  1679.62  1687.07  1687.96
                             1701.13  1711.31  1722.00  1737.57  1760.79
                             1763.55  1782.20  1791.87  1805.34  1826.45
                             1831.16  1838.26  1851.33  1864.53  1888.61
                             1894.38  1904.64  1966.13  1991.49  1993.59
                             1996.20  2021.30  2053.40  2085.59  2260.50
                             2364.89  2490.00  2525.99  2608.81  3484.34
                             3520.25  3542.29  3576.29  3702.72  3717.56
                             3734.66  3745.84  3767.66  3780.99  3786.05
                             3806.51  3812.80  3829.52  3846.93  3858.91
                             3884.27  3886.31  3894.92  3900.03  3945.99
                             3956.44  3972.39  3985.70  3994.93

 Zero-point correction=                           0.325694 (Hartree/Particle)
 Thermal correction to Energy=                    0.360738
 Thermal correction to Enthalpy=                  0.361682
 Thermal correction to Gibbs Free Energy=         0.253343
 Sum of electronic and zero-point Energies=             -0.255388
 Sum of electronic and thermal Energies=                -0.220345
 Sum of electronic and thermal Enthalpies=              -0.219401
 Sum of electronic and thermal Free Energies=           -0.327740

                     E (Thermal)             CV                S
                      KCal/Mol        Cal/Mol-Kelvin    Cal/Mol-Kelvin
 Total                  226.366            115.513            228.019
 Electronic               0.000              0.000              0.000
 Translational            0.889              2.981             43.214
 Rotational               0.889              2.981             35.086
 Vibrational            224.589            109.551            149.718
 Vibration     1          0.593              1.987              7.850
 Vibration     2          0.593              1.986              6.984
 Vibration     3          0.593              1.986              6.871
 Vibration     4          0.593              1.985              6.208
 Vibration     5          0.593              1.984              5.927
 Vibration     6          0.594              1.981              5.199
 Vibration     7          0.595              1.978              4.821
 Vibration     8          0.596              1.976              4.710
 Vibration     9          0.598              1.970              4.264
 Vibration    10          0.598              1.968              4.123
 Vibration    11          0.599              1.966              4.039
 Vibration    12          0.599              1.964              3.938
 Vibration    13          0.600              1.962              3.862
 Vibration    14          0.602              1.955              3.624
 Vibration    15          0.604              1.949              3.464
 Vibration    16          0.604              1.948              3.415
 Vibration    17          0.605              1.945              3.357
 Vibration    18          0.606              1.941              3.267
 Vibration    19          0.609              1.933              3.101
 Vibration    20          0.609              1.932              3.096
 Vibration    21          0.610              1.929              3.038
 Vibration    22          0.612              1.923              2.938
 Vibration    23          0.614              1.915              2.823
 Vibration    24          0.616              1.910              2.767
 Vibration    25          0.617              1.906              2.710
 Vibration    26          0.625              1.881              2.448
 Vibration    27          0.629              1.867              2.331
 Vibration    28          0.630              1.864              2.303
 Vibration    29          0.634              1.851              2.206
 Vibration    30          0.640              1.834              2.094
 Vibration    31          0.646              1.813              1.973
 Vibration    32          0.648              1.808              1.944
 Vibration    33          0.658              1.776              1.787
 Vibration    34          0.666              1.753              1.691
 Vibration    35          0.670              1.741              1.644
 Vibration    36          0.676              1.723              1.575
 Vibration    37          0.676              1.722              1.572
 Vibration    38          0.681              1.709              1.528
 Vibration    39          0.690              1.682              1.443
 Vibration    40          0.704              1.639              1.320
 Vibration    41          0.716              1.606              1.238
 Vibration    42          0.730              1.567              1.149
 Vibration    43          0.734              1.555              1.124
 Vibration    44          0.749              1.515              1.044
 Vibration    45          0.756              1.497              1.010
 Vibration    46          0.757              1.493              1.002
 Vibration    47          0.769              1.462              0.949
 Vibration    48          0.804              1.373              0.813
 Vibration    49          0.872              1.212              0.616
 Vibration    50          0.898              1.156              0.560
 Vibration    51          0.905              1.140              0.545
 Vibration    52          0.918              1.113              0.519
 Vibration    53          0.926              1.096              0.504

 Normal termination of Gaussian 09 at Thu Aug 27 18:57:15 2020.
