 Gaussian 09, Revision D.01,
 Gaussian 09:  ES64L-G09RevD.01 24-Apr-2013

 ----------------------------------------------------------------------
 # opt freq pm6 scrf=(cpcm,solvent=toluene) geom=connectivity empirical
 dispersion=gd3
 ----------------------------------------------------------------------

 -------------------
 Title Card Required
 -------------------
 Symbolic Z-matrix:
 Charge =  0 Multiplicity = 1

 SCF Done:  E(RPM6D3) = -0.276187866130     A.U. after   14 cycles
 SCF Done:  E(RPM6D3) = -0.276853068394     A.U. after   12 cycles
 SCF Done:  E(RPM6D3) = -0.277089314666     A.U. after   12 cycles
 SCF Done:  E(RPM6D3) = -0.277147873365     A.U. after   13 cycles
 SCF Done:  E(RPM6D3) = -0.277330309046     A.U. after   12 cycles
 SCF Done:  E(RPM6D3) = -0.277385497493     A.U. after   12 cycles
 SCF Done:  E(RPM6D3) = -0.277429628089     A.U. after   12 cycles
 SCF Done:  E(RPM6D3) = -0.277501027442     A.U. after   12 cycles
 SCF Done:  E(RPM6D3) = -0.277507548674     A.U. after   12 cycles
 SCF Done:  E(RPM6D3) = -0.277578094883     A.U. after   12 cycles
 SCF Done:  E(RPM6D3) = -0.281655436487     A.U. after   10 cycles
 SCF Done:  E(RPM6D3) = -0.281666827871     A.U. after   11 cycles
 SCF Done:  E(RPM6D3) = -0.281671284679     A.U. after   11 cycles
 SCF Done:  E(RPM6D3) = -0.281673042632     A.U. after   11 cycles
 SCF Done:  E(RPM6D3) = -0.281673875214     A.U. after   10 cycles
 SCF Done:  E(RPM6D3) = -0.281674666336     A.U. after   10 cycles
 SCF Done:  E(RPM6D3) = -0.281675147295     A.U. after    9 cycles
 SCF Done:  E(RPM6D3) = -0.281675467033     A.U. after   10 cycles
 SCF Done:  E(RPM6D3) = -0.281675573238     A.U. after    9 cycles
 Optimization completed.
    -- Stationary point found.
 Normal termination of Gaussian 09 at Wed Aug  5 12:14:45 2020.

 -------------------------------------------------------------
 #N Geom=AllCheck Guess=TCheck SCRF=Check GenChk RPM6/ZDO Freq
 -------------------------------------------------------------

 Structure from the checkpoint file:  "PM6_2H2O_dienophile_pm6_cpcmtoluene_1.chk"
 -------------------
 Title Card Required
 -------------------
 Charge =  0 Multiplicity = 1

                         Standard orientation:
 ---------------------------------------------------------------------
 Center     Atomic      Atomic             Coordinates (Angstroms)
 Number     Number       Type             X           Y           Z
 ---------------------------------------------------------------------
      1          6           0        1.177905   -0.368385    0.025356
      2          6           0        0.667953    1.059201    0.076320
      3          6           0       -0.668583    1.059299    0.076348
      4          6           0       -1.178453   -0.367862    0.025335
      5          1           0        1.375738    1.884729    0.104731
      6          1           0       -1.376271    1.884980    0.104877
      7          6           0        0.002117   -2.658390   -0.042979
      8          1           0       -1.009894   -3.037160   -0.275022
      9          1           0        0.699487   -3.024654   -0.817571
     10          1           0        0.314859   -3.073056    0.932285
     11          7           0       -0.000539   -1.185672   -0.007014
     12          8           0       -2.311122   -0.785026    0.006140
     13          8           0        2.310726   -0.784376    0.006592
     14          8           0       -3.613427    1.770115    0.006345
     15          1           0       -4.235777    1.964858   -0.689857
     16          1           0       -3.610739    0.806845    0.107821
     17          8           0        3.613050    1.771265    0.006075
     18          1           0        3.610142    0.807955    0.107219
     19          1           0        4.236771    1.966208   -0.688881
 ---------------------------------------------------------------------

 SCF Done:  E(RPM6D3) = -0.281675573237     A.U. after    2 cycles

 The electronic state is 1-A.
 Alpha  occ. eigenvalues --   -1.24412  -1.20730  -1.17739  -1.10577  -1.10524
 Alpha  occ. eigenvalues --   -1.06560  -0.91811  -0.88786  -0.78726  -0.74956
 Alpha  occ. eigenvalues --   -0.69264  -0.68615  -0.64818  -0.63222  -0.61298
 Alpha  occ. eigenvalues --   -0.58700  -0.56714  -0.56177  -0.54368  -0.54064
 Alpha  occ. eigenvalues --   -0.52320  -0.51784  -0.51246  -0.44469  -0.44116
 Alpha  occ. eigenvalues --   -0.44009  -0.43756  -0.40764  -0.39293
 Alpha virt. eigenvalues --   -0.05931   0.01360   0.02525   0.02835   0.07639
 Alpha virt. eigenvalues --    0.08004   0.11536   0.12070   0.13899   0.15274
 Alpha virt. eigenvalues --    0.15591   0.16750   0.16767   0.18531   0.18805

 Mulliken charges:
               1
     1  C    0.610914
     2  C   -0.215569
     3  C   -0.215495
     4  C    0.610954
     5  H    0.221417
     6  H    0.221479
     7  C   -0.252419
     8  H    0.170577
     9  H    0.163849
    10  H    0.160097
    11  N   -0.481172
    12  O   -0.491860
    13  O   -0.490260
    14  O   -0.662789
    15  H    0.321700
    16  H    0.334838
    17  O   -0.662804
    18  H    0.334840
    19  H    0.321703
 Sum of Mulliken charges =   0.00000

 Dipole moment (field-independent basis, Debye):
    X=             -0.0174    Y=             -1.4395    Z=             -2.1356  Tot=              2.5755
 N-N= 3.323215028674D+02 E-N=-5.909022851473D+02  KE=-3.350774558644D+01
  Exact polarizability: 128.838  -0.260  66.267   0.000  -0.739  19.895
 Approx polarizability:  86.834  -0.118  42.018  -0.001  -0.501  12.543
 D2PCM: C-PCM CHGder 2nd derivatives, FixD1E=F FixD2E=F DoIter=F DoCFld=F I1PDM=0
 Calling FoFJK, ICntrl=    100127 FMM=F ISym2X=0 I1Cent= 0 IOpClX= 0 NMat=1 NMatS=1 NMatT=0.
 Full mass-weighted force constant matrix:
 Low frequencies ---   -6.1398   -4.2425   -0.0465    0.0252    0.0932    1.9280
 Low frequencies ---   17.4304   33.5982   35.9585
 Diagonal vibrational polarizability:
      509.5780287     167.3084666     265.5195457

                      1                      2                      3
                      A                      A                      A
 Frequencies --     17.1560                33.5623                35.9167
 Red. masses --      1.0183                 4.6507                 8.7656
 Frc consts  --      0.0002                 0.0031                 0.0067
 IR Inten    --      0.0267                 0.0131                 0.0983

                      4                      5                      6
                      A                      A                      A
 Frequencies --     54.5510                82.9577                91.2269
 Red. masses --      5.4555                 4.8716                 4.9817
 Frc consts  --      0.0096                 0.0198                 0.0244
 IR Inten    --      4.5247                16.9206                 1.4979

                      7                      8                      9
                      A                      A                      A
 Frequencies --     92.7720               109.5935               125.0060
 Red. masses --      4.9735                 4.4898                 1.1481
 Frc consts  --      0.0252                 0.0318                 0.0106
 IR Inten    --      0.0969                 7.6612               150.5404

                     10                     11                     12
                      A                      A                      A
 Frequencies --    128.0323               192.3306               199.2833
 Red. masses --      1.1655                 4.3243                 1.1539
 Frc consts  --      0.0113                 0.0942                 0.0270
 IR Inten    --     55.0665                50.7033                 8.9106

                     13                     14                     15
                      A                      A                      A
 Frequencies --    209.0908               254.1140               267.4376
 Red. masses --      1.1826                 3.3891                 3.2497
 Frc consts  --      0.0305                 0.1289                 0.1369
 IR Inten    --    282.4005                 5.5994                 0.5674

                     16                     17                     18
                      A                      A                      A
 Frequencies --    360.1036               366.1197               383.2466
 Red. masses --      6.5484                 1.0537                 1.1013
 Frc consts  --      0.5003                 0.0832                 0.0953
 IR Inten    --     89.4056               654.8831               133.0347

                     19                     20                     21
                      A                      A                      A
 Frequencies --    538.7739               546.3157               558.8212
 Red. masses --      4.8463                 8.7192                 3.6617
 Frc consts  --      0.8288                 1.5332                 0.6737
 IR Inten    --      7.2529                 0.8681                46.5805

                     22                     23                     24
                      A                      A                      A
 Frequencies --    648.4124               672.6629               837.0572
 Red. masses --      8.0017                 4.3432                 6.4465
 Frc consts  --      1.9822                 1.1579                 2.6613
 IR Inten    --     26.1531                 0.0216                14.9055

                     25                     26                     27
                      A                      A                      A
 Frequencies --    894.7204               961.9797               967.4427
 Red. masses --      1.4790                 1.9999                 1.5788
 Frc consts  --      0.6976                 1.0904                 0.8706
 IR Inten    --    217.8134               164.9321                 0.0933

                     28                     29                     30
                      A                      A                      A
 Frequencies --   1029.4531              1056.9445              1060.0289
 Red. masses --      3.1378                 1.3192                 1.6791
 Frc consts  --      1.9592                 0.8683                 1.1116
 IR Inten    --    166.8502                17.2303                62.6041

                     31                     32                     33
                      A                      A                      A
 Frequencies --   1181.3881              1201.1569              1225.1811
 Red. masses --      2.0859                 1.8744                 1.0480
 Frc consts  --      1.7153                 1.5933                 0.9269
 IR Inten    --     24.6105                12.4834                47.7727

                     34                     35                     36
                      A                      A                      A
 Frequencies --   1229.1420              1260.1092              1321.7685
 Red. masses --      1.2257                 1.7199                 1.2692
 Frc consts  --      1.0910                 1.6091                 1.3065
 IR Inten    --      7.9189               327.0479                 0.5150

                     37                     38                     39
                      A                      A                      A
 Frequencies --   1382.7261              1383.0357              1438.0680
 Red. masses --      1.1102                 1.1137                 5.3374
 Frc consts  --      1.2507                 1.2552                 6.5033
 IR Inten    --    107.0266               122.5538               301.0292

                     40                     41                     42
                      A                      A                      A
 Frequencies --   1739.2645              1764.0121              1863.3584
 Red. masses --      8.2469                12.7085                12.6520
 Frc consts  --     14.6984                23.2996                25.8822
 IR Inten    --      4.2763              1994.9165                 0.4606

                     43                     44                     45
                      A                      A                      A
 Frequencies --   2462.4945              2463.9443              2591.7916
 Red. masses --      1.0833                 1.0827                 1.0222
 Frc consts  --      3.8704                 3.8727                 4.0458
 IR Inten    --    226.2495               705.4472                38.4317

                     46                     47                     48
                      A                      A                      A
 Frequencies --   2592.0498              2659.0453              2662.6873
 Red. masses --      1.0222                 1.0862                 1.0873
 Frc consts  --      4.0463                 4.5250                 4.5421
 IR Inten    --     63.6322                87.6430                93.8931

                     49                     50                     51
                      A                      A                      A
 Frequencies --   2697.8009              2716.9515              2756.1138
 Red. masses --      1.0760                 1.0921                 1.0279
 Frc consts  --      4.6142                 4.7500                 4.6005
 IR Inten    --    307.3250               382.7754                27.1887

 - Thermochemistry -
 -------------------
 Temperature   298.150 Kelvin.  Pressure   1.00000 Atm.
 Atom     1 has atomic number  6 and mass  12.00000

 Molecular mass:   147.05316 amu.
 Principal axes and moments of inertia in atomic units:
                           1         2         3
     Eigenvalues --  1077.623582511.136463568.81982
           X            1.00000  -0.00002   0.00000
           Y            0.00002   0.99998  -0.00569
           Z            0.00000   0.00569   0.99998
 This molecule is an asymmetric top.
 Rotational symmetry number  1.
 Warning -- assumption of classical behavior for rotation
           may cause significant error
 Rotational temperatures (Kelvin)      0.08037     0.03449     0.02427
 Rotational constants (GHZ):           1.67474     0.71869     0.50570
 Zero-point vibrational energy     319206.8 (Joules/Mol)
                                   76.29225 (Kcal/Mol)
 Warning -- explicit consideration of  21 degrees of freedom as
           vibrations may cause significant error
 Vibrational temperatures:     24.68    48.29    51.68    78.49   119.36
          (Kelvin)            131.26   133.48   157.68   179.86   184.21
                              276.72   286.72   300.83   365.61   384.78
                              518.11   526.76   551.41   775.17   786.03
                              804.02   932.92   967.81  1204.34  1287.30
                             1384.07  1391.93  1481.15  1520.71  1525.14
                             1699.75  1728.19  1762.76  1768.46  1813.01
                             1901.73  1989.43  1989.88  2069.06  2502.41
                             2538.02  2680.95  3542.98  3545.06  3729.01
                             3729.38  3825.77  3831.01  3881.53  3909.08
                             3965.43

 Zero-point correction=                           0.121579 (Hartree/Particle)
 Thermal correction to Energy=                    0.137124
 Thermal correction to Enthalpy=                  0.138068
 Thermal correction to Gibbs Free Energy=         0.075888
 Sum of electronic and zero-point Energies=             -0.160096
 Sum of electronic and thermal Energies=                -0.144552
 Sum of electronic and thermal Enthalpies=              -0.143608
 Sum of electronic and thermal Free Energies=           -0.205788

                     E (Thermal)             CV                S
                      KCal/Mol        Cal/Mol-Kelvin    Cal/Mol-Kelvin
 Total                   86.046             48.836            130.870
 Electronic               0.000              0.000              0.000
 Translational            0.889              2.981             40.868
 Rotational               0.889              2.981             30.647
 Vibrational             84.269             42.874             59.355
 Vibration     1          0.593              1.986              6.939
 Vibration     2          0.594              1.983              5.607
 Vibration     3          0.594              1.982              5.472
 Vibration     4          0.596              1.976              4.645
 Vibration     5          0.600              1.961              3.820
 Vibration     6          0.602              1.955              3.634
 Vibration     7          0.602              1.954              3.601
 Vibration     8          0.606              1.942              3.276
 Vibration     9          0.610              1.928              3.021
 Vibration    10          0.611              1.925              2.975
 Vibration    11          0.634              1.850              2.205
 Vibration    12          0.637              1.841              2.140
 Vibration    13          0.642              1.827              2.052
 Vibration    14          0.665              1.756              1.702
 Vibration    15          0.673              1.733              1.613
 Vibration    16          0.735              1.554              1.122
 Vibration    17          0.739              1.542              1.096
 Vibration    18          0.752              1.506              1.026
 Vibration    19          0.894              1.164              0.568
 Vibration    20          0.902              1.148              0.552
 Vibration    21          0.914              1.120              0.526

 Normal termination of Gaussian 09 at Wed Aug  5 12:14:49 2020.
