 Gaussian 09, Revision D.01,
 Gaussian 09:  ES64L-G09RevD.01 24-Apr-2013

 ----------------------------------------------------------------------
 # opt freq pm6 scrf=(cpcm,solvent=toluene) geom=connectivity empirical
 dispersion=gd3
 ----------------------------------------------------------------------

 -------------------
 Title Card Required
 -------------------
 Symbolic Z-matrix:
 Charge =  0 Multiplicity = 1

 SCF Done:  E(RPM6D3) = -0.310424329653     A.U. after   15 cycles
 SCF Done:  E(RPM6D3) = -0.311810665248     A.U. after   13 cycles
 SCF Done:  E(RPM6D3) = -0.312747104207     A.U. after   13 cycles
 SCF Done:  E(RPM6D3) = -0.313208533339     A.U. after   13 cycles
 SCF Done:  E(RPM6D3) = -0.313606461629     A.U. after   12 cycles
 SCF Done:  E(RPM6D3) = -0.313891074579     A.U. after   13 cycles
 SCF Done:  E(RPM6D3) = -0.314147496103     A.U. after   13 cycles
 SCF Done:  E(RPM6D3) = -0.314419416571     A.U. after   13 cycles
 SCF Done:  E(RPM6D3) = -0.314345261143     A.U. after   14 cycles
 SCF Done:  E(RPM6D3) = -0.314534456349     A.U. after   12 cycles
 SCF Done:  E(RPM6D3) = -0.317444039244     A.U. after    9 cycles
 SCF Done:  E(RPM6D3) = -0.317444228695     A.U. after    9 cycles
 SCF Done:  E(RPM6D3) = -0.317444384198     A.U. after    9 cycles
 SCF Done:  E(RPM6D3) = -0.317444491398     A.U. after    9 cycles
 SCF Done:  E(RPM6D3) = -0.317444525229     A.U. after    9 cycles
 SCF Done:  E(RPM6D3) = -0.317444526735     A.U. after   10 cycles
 SCF Done:  E(RPM6D3) = -0.317444532322     A.U. after    9 cycles
 SCF Done:  E(RPM6D3) = -0.317444537752     A.U. after    9 cycles
 SCF Done:  E(RPM6D3) = -0.317444553846     A.U. after    8 cycles
 Optimization completed.
    -- Stationary point found.
 Normal termination of Gaussian 09 at Wed Aug  5 12:44:58 2020.

 -------------------------------------------------------------
 #N Geom=AllCheck Guess=TCheck SCRF=Check GenChk RPM6/ZDO Freq
 -------------------------------------------------------------

 Structure from the checkpoint file:  "PM6_2H2O_diene_pm6_cpcmtoluene_1.chk"
 -------------------
 Title Card Required
 -------------------
 Charge =  0 Multiplicity = 1

                         Standard orientation:
 ---------------------------------------------------------------------
 Center     Atomic      Atomic             Coordinates (Angstroms)
 Number     Number       Type             X           Y           Z
 ---------------------------------------------------------------------
      1          6           0        3.235438   -0.435687   -0.273695
      2          1           0        3.422940   -1.353912   -0.837508
      3          6           0        1.822497   -0.065018   -0.180721
      4          1           0        1.129199   -0.918188   -0.099936
      5          6           0        4.235936    0.253156    0.292968
      6          1           0        4.051782    1.160786    0.872228
      7          6           0        5.666603   -0.149843    0.202777
      8          1           0        6.085302   -0.351640    1.200169
      9          1           0        5.826493   -1.053754   -0.400631
     10          1           0        6.276170    0.648496   -0.245952
     11          6           0        1.368927    1.194356   -0.210720
     12          1           0        2.035839    2.053977   -0.308502
     13          6           0       -0.073085    1.576782   -0.125826
     14          1           0       -0.405198    2.145935   -1.014379
     15          1           0       -0.299337    2.133030    0.803337
     16          6           0       -2.190061    0.297239    0.024253
     17          6           0       -2.964820    1.553270    0.117210
     18          1           0       -2.812474    2.219313   -0.746257
     19          1           0       -4.057906    1.343601    0.158983
     20          1           0       -2.730043    2.131895    1.025190
     21          8           0       -0.824991    0.318116   -0.095737
     22          8           0       -2.639028   -0.840835    0.040963
     23          8           0       -5.419986   -0.384484    0.160517
     24          1           0       -4.594337   -0.887457    0.267132
     25          1           0       -5.882610   -0.787961   -0.569242
     26          8           0       -0.263348   -2.683098   -0.065128
     27          1           0       -0.576192   -3.145610    0.707938
     28          1           0       -0.899414   -1.961621   -0.214954
 ---------------------------------------------------------------------

 SCF Done:  E(RPM6D3) = -0.317444553848     A.U. after    2 cycles

 The electronic state is 1-A.
 Alpha  occ. eigenvalues --   -1.19034  -1.13810  -1.10027  -1.09248  -1.05124
 Alpha  occ. eigenvalues --   -1.01319  -0.99686  -0.94425  -0.84839  -0.79855
 Alpha  occ. eigenvalues --   -0.75308  -0.69262  -0.68494  -0.67728  -0.65621
 Alpha  occ. eigenvalues --   -0.64009  -0.61731  -0.58481  -0.56675  -0.55826
 Alpha  occ. eigenvalues --   -0.53027  -0.52527  -0.52481  -0.51881  -0.51687
 Alpha  occ. eigenvalues --   -0.51446  -0.50000  -0.48283  -0.45658  -0.44735
 Alpha  occ. eigenvalues --   -0.43783  -0.43550  -0.42637  -0.42316  -0.40469
 Alpha  occ. eigenvalues --   -0.34523
 Alpha virt. eigenvalues --    0.00934   0.01172   0.02540   0.06179   0.08588
 Alpha virt. eigenvalues --    0.11697   0.13102   0.14666   0.15421   0.16239
 Alpha virt. eigenvalues --    0.16563   0.17063   0.17680   0.17933   0.18265

 Mulliken charges:
               1
     1  C   -0.240964
     2  H    0.162326
     3  C   -0.073013
     4  H    0.175512
     5  C   -0.055538
     6  H    0.136595
     7  C   -0.490153
     8  H    0.167313
     9  H    0.163573
    10  H    0.166569
    11  C   -0.256930
    12  H    0.166190
    13  C    0.024192
    14  H    0.139650
    15  H    0.139578
    16  C    0.709515
    17  C   -0.651447
    18  H    0.213050
    19  H    0.236649
    20  H    0.215116
    21  O   -0.464528
    22  O   -0.566705
    23  O   -0.668188
    24  H    0.339251
    25  H    0.320375
    26  O   -0.664258
    27  H    0.318243
    28  H    0.338025
 Sum of Mulliken charges =   0.00000

 Dipole moment (field-independent basis, Debye):
    X=              1.0049    Y=              4.8112    Z=              0.2471  Tot=              4.9212
 N-N= 4.392917631806D+02 E-N=-7.881071297732D+02  KE=-4.322831607676D+01
  Exact polarizability: 141.049  -2.130  96.105  11.937   3.436  42.184
 Approx polarizability:  72.404   4.528  66.654   5.247   3.455  26.463
 D2PCM: C-PCM CHGder 2nd derivatives, FixD1E=F FixD2E=F DoIter=F DoCFld=F I1PDM=0
 Calling FoFJK, ICntrl=    100127 FMM=F ISym2X=0 I1Cent= 0 IOpClX= 0 NMat=1 NMatS=1 NMatT=0.
 Full mass-weighted force constant matrix:
 Low frequencies ---   -9.0459   -1.7289   -0.0577   -0.0400    0.0842    4.2080
 Low frequencies ---   12.8293   20.8740   34.9785
 Diagonal vibrational polarizability:
      432.4918697     381.1035410     294.7263435

                      1                      2                      3
                      A                      A                      A
 Frequencies --     10.9049                20.8027                34.7284
 Red. masses --      3.7150                 4.5869                 2.8903
 Frc consts  --      0.0003                 0.0012                 0.0021
 IR Inten    --      0.4366                 2.3832                 1.2978

                      4                      5                      6
                      A                      A                      A
 Frequencies --     38.8715                49.8655                60.4608
 Red. masses --      3.6947                 3.5029                 3.5377
 Frc consts  --      0.0033                 0.0051                 0.0076
 IR Inten    --      0.8568                 1.1238                 3.6414

                      7                      8                      9
                      A                      A                      A
 Frequencies --     69.7370                88.9505                90.6690
 Red. masses --      1.4560                 2.3299                 2.1813
 Frc consts  --      0.0042                 0.0109                 0.0106
 IR Inten    --      2.6017                23.2861                 1.4033

                     10                     11                     12
                      A                      A                      A
 Frequencies --    102.3251               116.0086               118.1047
 Red. masses --      2.7979                 2.2285                 3.3453
 Frc consts  --      0.0173                 0.0177                 0.0275
 IR Inten    --     11.5233                14.6890                 6.8581

                     13                     14                     15
                      A                      A                      A
 Frequencies --    127.7179               129.5597               144.5099
 Red. masses --      1.5648                 1.2633                 1.3671
 Frc consts  --      0.0150                 0.0125                 0.0168
 IR Inten    --     51.7774                39.5419                68.7095

                     16                     17                     18
                      A                      A                      A
 Frequencies --    147.1960               160.1649               174.2651
 Red. masses --      1.7576                 3.6084                 1.2285
 Frc consts  --      0.0224                 0.0545                 0.0220
 IR Inten    --     13.3431                11.2282                86.6334

                     19                     20                     21
                      A                      A                      A
 Frequencies --    209.7332               232.0734               309.4647
 Red. masses --      1.4420                 2.1732                 2.6760
 Frc consts  --      0.0374                 0.0690                 0.1510
 IR Inten    --     92.7407                45.4549                 0.8813

                     22                     23                     24
                      A                      A                      A
 Frequencies --    349.5836               358.0139               413.8637
 Red. masses --      3.2110                 1.0766                 1.0421
 Frc consts  --      0.2312                 0.0813                 0.1052
 IR Inten    --      1.2477               198.3165               429.4049

                     25                     26                     27
                      A                      A                      A
 Frequencies --    425.0606               525.8211               537.5782
 Red. masses --      4.0217                 4.4522                 3.0792
 Frc consts  --      0.4281                 0.7253                 0.5243
 IR Inten    --      4.0222                 5.0763                18.8673

                     28                     29                     30
                      A                      A                      A
 Frequencies --    547.6397               661.0274               789.3820
 Red. masses --      6.2558                 3.3494                 1.5125
 Frc consts  --      1.1054                 0.8623                 0.5553
 IR Inten    --     97.3626                 2.9515                13.6316

                     31                     32                     33
                      A                      A                      A
 Frequencies --    846.5370               917.0768               941.4364
 Red. masses --      1.4087                 4.0324                 1.1176
 Frc consts  --      0.5948                 1.9981                 0.5836
 IR Inten    --      6.2609                 8.9279               140.2382

                     34                     35                     36
                      A                      A                      A
 Frequencies --    960.5954               976.0018               981.5129
 Red. masses --      1.4310                 1.3202                 1.7726
 Frc consts  --      0.7780                 0.7410                 1.0061
 IR Inten    --     13.4861                42.8496                11.0555

                     37                     38                     39
                      A                      A                      A
 Frequencies --    998.6972              1023.3016              1034.7274
 Red. masses --      1.5820                 1.6138                 1.6112
 Frc consts  --      0.9297                 0.9957                 1.0164
 IR Inten    --      3.0901               124.9550                14.2912

                     40                     41                     42
                      A                      A                      A
 Frequencies --   1074.9822              1109.6144              1128.1449
 Red. masses --      2.4876                 3.5831                 1.0590
 Frc consts  --      1.6937                 2.5993                 0.7941
 IR Inten    --     19.9885               164.4764                 0.1193

                     43                     44                     45
                      A                      A                      A
 Frequencies --   1173.7800              1184.7061              1188.8081
 Red. masses --      2.0063                 1.0673                 1.0641
 Frc consts  --      1.6286                 0.8826                 0.8860
 IR Inten    --     82.9939                92.5633                99.9045

                     46                     47                     48
                      A                      A                      A
 Frequencies --   1222.9604              1229.1912              1235.0369
 Red. masses --      1.1079                 1.3061                 1.0551
 Frc consts  --      0.9762                 1.1627                 0.9482
 IR Inten    --     41.5368                28.0456                55.6960

                     49                     50                     51
                      A                      A                      A
 Frequencies --   1249.6942              1267.9940              1272.0138
 Red. masses --      1.2821                 1.3059                 1.2667
 Frc consts  --      1.1798                 1.2370                 1.2076
 IR Inten    --    239.4847                97.0225                 5.7793

                     52                     53                     54
                      A                      A                      A
 Frequencies --   1280.3605              1288.0293              1296.9938
 Red. masses --      1.5997                 2.0000                 1.2827
 Frc consts  --      1.5451                 1.9550                 1.2713
 IR Inten    --    151.6187               149.1983               254.8887

                     55                     56                     57
                      A                      A                      A
 Frequencies --   1306.4608              1326.9188              1328.8728
 Red. masses --      1.8537                 1.8796                 1.5935
 Frc consts  --      1.8641                 1.9499                 1.6579
 IR Inten    --     21.5211               370.3276                27.4257

                     58                     59                     60
                      A                      A                      A
 Frequencies --   1383.9353              1385.8241              1742.8368
 Red. masses --      1.1124                 1.1224                11.3311
 Frc consts  --      1.2552                 1.2701                20.2785
 IR Inten    --     63.8924               232.2846               645.0298

                     61                     62                     63
                      A                      A                      A
 Frequencies --   1784.7756              1792.6946              2446.9447
 Red. masses --      9.2771                 9.4437                 1.0811
 Frc consts  --     17.4113                17.8816                 3.8138
 IR Inten    --     43.7988                31.6310               685.9328

                     64                     65                     66
                      A                      A                      A
 Frequencies --   2465.1080              2590.8696              2604.5029
 Red. masses --      1.0827                 1.0274                 1.0225
 Frc consts  --      3.8763                 4.0632                 4.0865
 IR Inten    --    369.7209                73.9824                73.9721

                     67                     68                     69
                      A                      A                      A
 Frequencies --   2627.4655              2651.9308              2671.6643
 Red. masses --      1.0812                 1.0887                 1.0866
 Frc consts  --      4.3977                 4.5111                 4.5698
 IR Inten    --    251.3742                47.4237               181.1450

                     70                     71                     72
                      A                      A                      A
 Frequencies --   2684.0585              2687.2946              2691.9579
 Red. masses --      1.0848                 1.0838                 1.0690
 Frc consts  --      4.6045                 4.6114                 4.5641
 IR Inten    --     86.1714                53.5599               117.7580

                     73                     74                     75
                      A                      A                      A
 Frequencies --   2707.6021              2733.0664              2740.1683
 Red. masses --      1.0444                 1.0683                 1.0735
 Frc consts  --      4.5111                 4.7015                 4.7490
 IR Inten    --     45.0347                14.3077               111.4106

                     76                     77                     78
                      A                      A                      A
 Frequencies --   2751.0804              2770.4436              2785.6541
 Red. masses --      1.0761                 1.0344                 1.0328
 Frc consts  --      4.7986                 4.6777                 4.7218
 IR Inten    --    211.5112               119.2307                61.9297

 - Thermochemistry -
 -------------------
 Temperature   298.150 Kelvin.  Pressure   1.00000 Atm.
 Atom     1 has atomic number  6 and mass  12.00000

 Molecular mass:   176.10486 amu.
 Principal axes and moments of inertia in atomic units:
                           1         2         3
     Eigenvalues --   958.452386397.022017270.56519
           X            0.99999  -0.00494   0.00230
           Y            0.00494   0.99999   0.00051
           Z           -0.00230  -0.00050   1.00000
 This molecule is an asymmetric top.
 Rotational symmetry number  1.
 Warning -- assumption of classical behavior for rotation
           may cause significant error
 Rotational temperatures (Kelvin)      0.09037     0.01354     0.01191
 Rotational constants (GHZ):           1.88297     0.28212     0.24823
 Zero-point vibrational energy     529876.4 (Joules/Mol)
                                  126.64349 (Kcal/Mol)
 Warning -- explicit consideration of  28 degrees of freedom as
           vibrations may cause significant error
 Vibrational temperatures:     15.69    29.93    49.97    55.93    71.75
          (Kelvin)             86.99   100.34   127.98   130.45   147.22
                              166.91   169.93   183.76   186.41   207.92
                              211.78   230.44   250.73   301.76   333.90
                              445.25   502.97   515.10   595.46   611.57
                              756.54   773.45   787.93   951.07  1135.74
                             1217.98  1319.47  1354.52  1382.08  1404.25
                             1412.18  1436.90  1472.30  1488.74  1546.66
                             1596.49  1623.15  1688.81  1704.53  1710.43
                             1759.57  1768.53  1776.94  1798.03  1824.36
                             1830.14  1842.15  1853.18  1866.08  1879.70
                             1909.14  1911.95  1991.17  1993.89  2507.55
                             2567.89  2579.28  3520.60  3546.74  3727.68
                             3747.29  3780.33  3815.53  3843.92  3861.76
                             3866.41  3873.12  3895.63  3932.27  3942.49
                             3958.19  3986.05  4007.93

 Zero-point correction=                           0.201819 (Hartree/Particle)
 Thermal correction to Energy=                    0.222428
 Thermal correction to Enthalpy=                  0.223372
 Thermal correction to Gibbs Free Energy=         0.147834
 Sum of electronic and zero-point Energies=             -0.115625
 Sum of electronic and thermal Energies=                -0.095017
 Sum of electronic and thermal Enthalpies=              -0.094073
 Sum of electronic and thermal Free Energies=           -0.169611

                     E (Thermal)             CV                S
                      KCal/Mol        Cal/Mol-Kelvin    Cal/Mol-Kelvin
 Total                  139.575             64.856            158.983
 Electronic               0.000              0.000              0.000
 Translational            0.889              2.981             41.405
 Rotational               0.889              2.981             32.167
 Vibrational            137.798             58.894             85.411
 Vibration     1          0.593              1.987              7.839
 Vibration     2          0.593              1.986              6.556
 Vibration     3          0.594              1.983              5.539
 Vibration     4          0.594              1.981              5.316
 Vibration     5          0.595              1.978              4.823
 Vibration     6          0.597              1.973              4.442
 Vibration     7          0.598              1.969              4.161
 Vibration     8          0.602              1.957              3.683
 Vibration     9          0.602              1.956              3.646
 Vibration    10          0.604              1.947              3.410
 Vibration    11          0.608              1.936              3.166
 Vibration    12          0.608              1.934              3.131
 Vibration    13          0.611              1.925              2.980
 Vibration    14          0.612              1.924              2.953
 Vibration    15          0.616              1.909              2.743
 Vibration    16          0.617              1.906              2.708
 Vibration    17          0.622              1.891              2.548
 Vibration    18          0.627              1.874              2.389
 Vibration    19          0.642              1.826              2.046
 Vibration    20          0.653              1.792              1.863
 Vibration    21          0.699              1.656              1.365
 Vibration    22          0.727              1.576              1.168
 Vibration    23          0.733              1.559              1.131
 Vibration    24          0.777              1.440              0.913
 Vibration    25          0.787              1.416              0.875
 Vibration    26          0.881              1.193              0.597
 Vibration    27          0.893              1.167              0.571
 Vibration    28          0.903              1.145              0.549

 Normal termination of Gaussian 09 at Wed Aug  5 12:45:07 2020.
