 Gaussian 09, Revision D.01,
 Gaussian 09:  ES64L-G09RevD.01 24-Apr-2013

 ----------------------------------------------------------------------
 # opt freq pm6 scrf=(cpcm,solvent=toluene) geom=connectivity empirical
 dispersion=gd3
 ----------------------------------------------------------------------

 -------------------
 Title Card Required
 -------------------
 Symbolic Z-matrix:
 Charge =  0 Multiplicity = 1

 SCF Done:  E(RPM6D3) = -0.689732250783     A.U. after   15 cycles
 SCF Done:  E(RPM6D3) = -0.690596069623     A.U. after   12 cycles
 SCF Done:  E(RPM6D3) = -0.691256921677     A.U. after   12 cycles
 SCF Done:  E(RPM6D3) = -0.691597123856     A.U. after   14 cycles
 SCF Done:  E(RPM6D3) = -0.691232770756     A.U. after   13 cycles
 SCF Done:  E(RPM6D3) = -0.692076749541     A.U. after   12 cycles
 SCF Done:  E(RPM6D3) = -0.692689462137     A.U. after   14 cycles
 SCF Done:  E(RPM6D3) = -0.692586906655     A.U. after   13 cycles
 SCF Done:  E(RPM6D3) = -0.693713663735     A.U. after   12 cycles
 SCF Done:  E(RPM6D3) = -0.694282487313     A.U. after   13 cycles
 SCF Done:  E(RPM6D3) = -0.696046826524     A.U. after    9 cycles
 SCF Done:  E(RPM6D3) = -0.696046788827     A.U. after    9 cycles
 SCF Done:  E(RPM6D3) = -0.696046784978     A.U. after    9 cycles
 SCF Done:  E(RPM6D3) = -0.696046789585     A.U. after    8 cycles
 SCF Done:  E(RPM6D3) = -0.696046799866     A.U. after    8 cycles
 SCF Done:  E(RPM6D3) = -0.696046814799     A.U. after    8 cycles
 SCF Done:  E(RPM6D3) = -0.696046815838     A.U. after    8 cycles
 SCF Done:  E(RPM6D3) = -0.696046816358     A.U. after    8 cycles
 SCF Done:  E(RPM6D3) = -0.696046802525     A.U. after    8 cycles
 Optimization completed.
    -- Stationary point found.
 Normal termination of Gaussian 09 at Fri Aug  7 00:14:40 2020.

 -------------------------------------------------------------
 #N Geom=AllCheck Guess=TCheck SCRF=Check GenChk RPM6/ZDO Freq
 -------------------------------------------------------------

 Structure from the checkpoint file:  "PM6_4H2O_cyclohexene_pm6_cpcmtoluene_3.chk"
 -------------------
 Title Card Required
 -------------------
 Charge =  0 Multiplicity = 1

                         Standard orientation:
 ---------------------------------------------------------------------
 Center     Atomic      Atomic             Coordinates (Angstroms)
 Number     Number       Type             X           Y           Z
 ---------------------------------------------------------------------
      1          6           0       -3.025358   -0.549519   -0.394336
      2          6           0       -1.890181   -1.276708    0.329029
      3          6           0       -0.722164   -0.258934    0.392475
      4          6           0       -1.273934    1.031149   -0.220135
      5          1           0       -2.238661   -1.469854    1.383747
      6          1           0       -0.505062   -0.032675    1.480811
      7          6           0       -3.443044    1.802137   -1.322878
      8          1           0       -3.125326    1.949208   -2.369275
      9          1           0       -4.497946    1.473999   -1.321704
     10          1           0       -3.381622    2.779831   -0.800584
     11          7           0       -2.595882    0.795987   -0.653610
     12          8           0       -0.696317    2.101260   -0.304861
     13          8           0       -4.117623   -0.958434   -0.703102
     14          6           0        0.587817   -0.658702   -0.315332
     15          1           0        1.090381    0.281230   -0.678747
     16          6           0       -1.594604   -2.627961   -0.359244
     17          1           0       -2.569875   -3.028939   -0.750259
     18          6           0       -0.639077   -2.460204   -1.512096
     19          1           0       -0.804347   -3.125861   -2.357864
     20          6           0        0.352693   -1.567573   -1.490207
     21          1           0        1.057532   -1.454620   -2.312113
     22          6           0       -1.034593   -3.645704    0.640394
     23          1           0       -1.721537   -3.814191    1.477489
     24          1           0       -0.861786   -4.616438    0.159370
     25          1           0       -0.070067   -3.319200    1.061563
     26          6           0        1.527789   -1.322951    0.707398
     27          1           0        1.607509   -0.740450    1.644468
     28          1           0        1.245515   -2.377669    0.925819
     29          6           0        3.682440   -0.403193    0.039859
     30          6           0        4.975648   -0.789671   -0.567964
     31          1           0        5.416940    0.056074   -1.136562
     32          1           0        5.715414   -1.062794    0.205470
     33          1           0        4.893548   -1.652254   -1.248398
     34          8           0        3.335126    0.702011    0.425501
     35          8           0        2.857243   -1.489795    0.133451
     36          8           0        1.109444    1.648427    2.010680
     37          1           0        0.669743    2.152849    1.313062
     38          1           0        1.989728    1.440547    1.661425
     39          8           0        5.316074    2.299536   -0.807984
     40          1           0        4.954938    3.012527   -1.327577
     41          1           0        4.639341    2.074512   -0.148296
     42          8           0       -2.211556    4.516267   -0.320226
     43          1           0       -1.876058    5.109073   -0.987293
     44          1           0       -1.544353    3.814537   -0.222276
     45          8           0       -2.153483    0.194326    2.913435
     46          1           0       -1.664920    0.320011    3.727800
     47          1           0       -2.779700    0.916878    2.858255
 ---------------------------------------------------------------------

 SCF Done:  E(RPM6D3) = -0.696046802541     A.U. after    2 cycles

 The electronic state is 1-A.
 Alpha  occ. eigenvalues --   -1.23652  -1.19619  -1.19393  -1.15797  -1.14165
 Alpha  occ. eigenvalues --   -1.12112  -1.11590  -1.10152  -1.09986  -1.09342
 Alpha  occ. eigenvalues --   -1.03827  -1.02111  -1.00025  -0.95060  -0.90352
 Alpha  occ. eigenvalues --   -0.89305  -0.84383  -0.80194  -0.79383  -0.76953
 Alpha  occ. eigenvalues --   -0.73520  -0.70136  -0.69479  -0.69019  -0.68755
 Alpha  occ. eigenvalues --   -0.67067  -0.65792  -0.64550  -0.63641  -0.62807
 Alpha  occ. eigenvalues --   -0.61846  -0.61304  -0.59645  -0.57930  -0.56813
 Alpha  occ. eigenvalues --   -0.56165  -0.55109  -0.54748  -0.54579  -0.53898
 Alpha  occ. eigenvalues --   -0.53332  -0.53027  -0.52528  -0.52054  -0.51865
 Alpha  occ. eigenvalues --   -0.51483  -0.51047  -0.50677  -0.50505  -0.49734
 Alpha  occ. eigenvalues --   -0.48819  -0.48233  -0.46234  -0.45232  -0.44641
 Alpha  occ. eigenvalues --   -0.44176  -0.43775  -0.43568  -0.43423  -0.42913
 Alpha  occ. eigenvalues --   -0.42651  -0.42200  -0.39807  -0.39200  -0.37985
 Alpha virt. eigenvalues --   -0.01321   0.00670   0.02069   0.02224   0.02850
 Alpha virt. eigenvalues --    0.03138   0.07819   0.08236   0.09301   0.09695
 Alpha virt. eigenvalues --    0.11131   0.11503   0.11786   0.12134   0.12719

 Mulliken charges:
               1
     1  C    0.603671
     2  C   -0.235857
     3  C   -0.223374
     4  C    0.609592
     5  H    0.203699
     6  H    0.214409
     7  C   -0.279362
     8  H    0.158905
     9  H    0.173106
    10  H    0.184130
    11  N   -0.451982
    12  O   -0.575926
    13  O   -0.502271
    14  C   -0.107834
    15  H    0.163595
    16  C   -0.018547
    17  H    0.144492
    18  C   -0.170117
    19  H    0.153722
    20  C   -0.171135
    21  H    0.154231
    22  C   -0.485030
    23  H    0.160515
    24  H    0.162462
    25  H    0.156516
    26  C   -0.022566
    27  H    0.153273
    28  H    0.165025
    29  C    0.708913
    30  C   -0.604403
    31  H    0.229953
    32  H    0.217361
    33  H    0.212106
    34  O   -0.609491
    35  O   -0.442352
    36  O   -0.681775
    37  H    0.332039
    38  H    0.336706
    39  O   -0.667303
    40  H    0.320503
    41  H    0.337458
    42  O   -0.668242
    43  H    0.319523
    44  H    0.339176
    45  O   -0.652582
    46  H    0.328181
    47  H    0.326890
 Sum of Mulliken charges =   0.00000

 Dipole moment (field-independent basis, Debye):
    X=              1.7120    Y=             -2.8021    Z=             -0.5108  Tot=              3.3232
 N-N= 1.218567069455D+03 E-N=-2.263777337861D+03  KE=-8.572369924488D+01
  Exact polarizability: 184.028  31.857 171.800   5.187  -3.901  94.702
 Approx polarizability: 113.754  24.028 113.128   3.058  -1.216  62.692
 D2PCM: C-PCM CHGder 2nd derivatives, FixD1E=F FixD2E=F DoIter=F DoCFld=F I1PDM=0
 CoulSu:  requested number of processors reduced to:   3 ShMem   1 Linda.
 Calling FoFJK, ICntrl=    100127 FMM=F ISym2X=0 I1Cent= 0 IOpClX= 0 NMat=1 NMatS=1 NMatT=0.
 Full mass-weighted force constant matrix:
 Low frequencies ---   -3.9216   -1.9370   -0.0757   -0.0079    0.0979    4.2317
 Low frequencies ---   15.3405   17.1913   18.9935
 Diagonal vibrational polarizability:

                      1                      2                      3
                      A                      A                      A
 Frequencies --     15.3368                16.8645                18.9762
 Red. masses --      5.3168                 5.4547                 5.0707
 Frc consts  --      0.0007                 0.0009                 0.0011
 IR Inten    --      1.4515                 2.2910                 0.7807

                      4                      5                      6
                      A                      A                      A
 Frequencies --     25.7982                29.6649                44.1667
 Red. masses --      4.8892                 5.5341                 5.7302
 Frc consts  --      0.0019                 0.0029                 0.0066
 IR Inten    --      1.3676                 0.5465                 2.7448

                      7                      8                      9
                      A                      A                      A
 Frequencies --     46.5185                54.5108                58.6040
 Red. masses --      4.7321                 4.6750                 3.3300
 Frc consts  --      0.0060                 0.0082                 0.0067
 IR Inten    --      3.0278                13.5066                 0.4495

                     10                     11                     12
                      A                      A                      A
 Frequencies --     72.0851                75.6754                85.0346
 Red. masses --      3.2250                 3.7398                 2.6176
 Frc consts  --      0.0099                 0.0126                 0.0112
 IR Inten    --      2.0040                13.5447                 2.9581

                     13                     14                     15
                      A                      A                      A
 Frequencies --     90.0231                97.6735                99.4667
 Red. masses --      3.1208                 3.6036                 1.4881
 Frc consts  --      0.0149                 0.0203                 0.0087
 IR Inten    --      3.9814                 9.5395                15.4943

                     16                     17                     18
                      A                      A                      A
 Frequencies --    105.4199               109.9348               115.8544
 Red. masses --      3.9887                 4.0985                 1.8803
 Frc consts  --      0.0261                 0.0292                 0.0149
 IR Inten    --      0.4055                 4.9091                 6.4279

                     19                     20                     21
                      A                      A                      A
 Frequencies --    118.1355               123.7034               128.8605
 Red. masses --      2.5863                 1.3835                 1.4381
 Frc consts  --      0.0213                 0.0125                 0.0141
 IR Inten    --     25.8265                37.6402                27.3463

                     22                     23                     24
                      A                      A                      A
 Frequencies --    137.8381               150.1045               162.2978
 Red. masses --      2.3732                 1.2520                 1.1446
 Frc consts  --      0.0266                 0.0166                 0.0178
 IR Inten    --     22.4752                98.9006                 3.1537

                     25                     26                     27
                      A                      A                      A
 Frequencies --    169.1244               172.6036               191.6315
 Red. masses --      2.1657                 3.8629                 1.2672
 Frc consts  --      0.0365                 0.0678                 0.0274
 IR Inten    --     29.7363                 5.9467               144.5685

                     28                     29                     30
                      A                      A                      A
 Frequencies --    194.3612               198.5127               214.8590
 Red. masses --      1.6901                 1.8015                 1.4165
 Frc consts  --      0.0376                 0.0418                 0.0385
 IR Inten    --     58.0799                84.4709                98.1048

                     31                     32                     33
                      A                      A                      A
 Frequencies --    215.2736               227.1406               238.1619
 Red. masses --      1.2488                 2.3333                 2.3578
 Frc consts  --      0.0341                 0.0709                 0.0788
 IR Inten    --    167.9795                51.1519                30.0872

                     34                     35                     36
                      A                      A                      A
 Frequencies --    244.7297               256.1799               275.4445
 Red. masses --      1.5843                 2.7563                 2.9503
 Frc consts  --      0.0559                 0.1066                 0.1319
 IR Inten    --     37.6148                12.0686                60.7152

                     37                     38                     39
                      A                      A                      A
 Frequencies --    289.8082               303.7155               315.4288
 Red. masses --      3.1814                 3.3632                 1.1117
 Frc consts  --      0.1574                 0.1828                 0.0652
 IR Inten    --     13.5739                13.3917                26.1204

                     40                     41                     42
                      A                      A                      A
 Frequencies --    339.1869               373.8111               402.5779
 Red. masses --      1.0907                 4.6291                 4.1955
 Frc consts  --      0.0739                 0.3811                 0.4006
 IR Inten    --    200.0516               100.0695                 1.3306

                     43                     44                     45
                      A                      A                      A
 Frequencies --    414.6558               424.4215               447.5574
 Red. masses --      2.1660                 1.2928                 2.4683
 Frc consts  --      0.2194                 0.1372                 0.2913
 IR Inten    --     37.7531               101.2946               327.1592

                     46                     47                     48
                      A                      A                      A
 Frequencies --    454.4118               513.0919               520.7818
 Red. masses --      1.3616                 3.1719                 4.3914
 Frc consts  --      0.1657                 0.4920                 0.7017
 IR Inten    --    603.0250                 2.1847                16.1972

                     49                     50                     51
                      A                      A                      A
 Frequencies --    551.2829               560.1704               571.4538
 Red. masses --      3.6107                 4.0790                 6.0180
 Frc consts  --      0.6465                 0.7541                 1.1579
 IR Inten    --     19.6505                 0.6220                 5.5356

                     52                     53                     54
                      A                      A                      A
 Frequencies --    608.8402               620.3207               666.6989
 Red. masses --      5.7311                 5.6559                 5.5393
 Frc consts  --      1.2517                 1.2823                 1.4507
 IR Inten    --      0.0687                54.4480                54.9288

                     55                     56                     57
                      A                      A                      A
 Frequencies --    727.2583               814.9339               817.0798
 Red. masses --      5.8253                 4.6468                 1.4053
 Frc consts  --      1.8153                 1.8182                 0.5528
 IR Inten    --      7.9127                25.3251                61.3831

                     58                     59                     60
                      A                      A                      A
 Frequencies --    842.3136               895.4278               911.3021
 Red. masses --      3.4939                 2.5001                 2.8295
 Frc consts  --      1.4605                 1.1810                 1.3845
 IR Inten    --     22.6608                 4.6127                14.3733

                     61                     62                     63
                      A                      A                      A
 Frequencies --    932.2881               954.9498               965.9033
 Red. masses --      2.2464                 1.5733                 1.7754
 Frc consts  --      1.1504                 0.8453                 0.9759
 IR Inten    --     28.1394                17.9416                 6.5174

                     64                     65                     66
                      A                      A                      A
 Frequencies --    978.4337              1001.5325              1016.8533
 Red. masses --      1.8226                 1.7310                 1.7379
 Frc consts  --      1.0280                 1.0230                 1.0588
 IR Inten    --     54.6212               144.0776                59.7512

                     67                     68                     69
                      A                      A                      A
 Frequencies --   1023.6416              1046.2937              1058.5697
 Red. masses --      1.6047                 1.6615                 1.3109
 Frc consts  --      0.9907                 1.0717                 0.8655
 IR Inten    --    140.0047                 4.9889                14.0422

                     70                     71                     72
                      A                      A                      A
 Frequencies --   1062.5815              1079.1160              1092.4315
 Red. masses --      1.5873                 3.5547                 2.9250
 Frc consts  --      1.0559                 2.4389                 2.0567
 IR Inten    --     35.3601                16.2829               203.5187

                     73                     74                     75
                      A                      A                      A
 Frequencies --   1108.8443              1128.4338              1141.0066
 Red. masses --      2.8825                 2.5901                 1.8531
 Frc consts  --      2.0881                 1.9432                 1.4214
 IR Inten    --    158.2765                96.1710                14.1392

                     76                     77                     78
                      A                      A                      A
 Frequencies --   1149.2917              1162.3317              1171.1487
 Red. masses --      1.5052                 1.1711                 1.5713
 Frc consts  --      1.1714                 0.9322                 1.2698
 IR Inten    --      7.9709                 5.8215                20.4646

                     79                     80                     81
                      A                      A                      A
 Frequencies --   1174.3773              1177.4869              1190.3788
 Red. masses --      1.3750                 1.0729                 1.1698
 Frc consts  --      1.1173                 0.8764                 0.9766
 IR Inten    --     11.6084               112.0469                87.0657

                     82                     83                     84
                      A                      A                      A
 Frequencies --   1191.5544              1198.0943              1220.4702
 Red. masses --      1.0771                 1.4290                 1.1527
 Frc consts  --      0.9011                 1.2085                 1.0116
 IR Inten    --     59.2652                 8.8592                 2.0756

                     85                     86                     87
                      A                      A                      A
 Frequencies --   1224.1342              1239.5858              1242.5438
 Red. masses --      1.0454                 1.6376                 1.3594
 Frc consts  --      0.9230                 1.4825                 1.2366
 IR Inten    --     55.6103               149.9394               133.5990

                     88                     89                     90
                      A                      A                      A
 Frequencies --   1245.3420              1252.7557              1257.0920
 Red. masses --      1.1085                 1.2785                 1.7436
 Frc consts  --      1.0129                 1.1822                 1.6234
 IR Inten    --     97.8547                21.4412                83.4574

                     91                     92                     93
                      A                      A                      A
 Frequencies --   1259.7853              1271.2173              1277.8771
 Red. masses --      1.4845                 1.7900                 1.6974
 Frc consts  --      1.3881                 1.7042                 1.6331
 IR Inten    --     23.9662                56.0863                25.2021

                     94                     95                     96
                      A                      A                      A
 Frequencies --   1289.0028              1294.3549              1295.1719
 Red. masses --      1.6541                 2.9040                 1.3297
 Frc consts  --      1.6193                 2.8665                 1.3142
 IR Inten    --    228.9148               372.4639               154.1131

                     97                     98                     99
                      A                      A                      A
 Frequencies --   1308.8908              1319.9382              1324.8362
 Red. masses --      1.8042                 1.2348                 1.5211
 Frc consts  --      1.8212                 1.2675                 1.5730
 IR Inten    --    192.2905                 5.0289                61.4819

                    100                    101                    102
                      A                      A                      A
 Frequencies --   1335.0153              1345.8441              1379.6667
 Red. masses --      1.5890                 2.0310                 1.1094
 Frc consts  --      1.6685                 2.1674                 1.2442
 IR Inten    --     32.7719                14.8627               119.2600

                    103                    104                    105
                      A                      A                      A
 Frequencies --   1382.0351              1384.0984              1398.2423
 Red. masses --      1.1120                 1.1155                 1.1094
 Frc consts  --      1.2513                 1.2591                 1.2779
 IR Inten    --    125.1771               113.1112               146.8894

                    106                    107                    108
                      A                      A                      A
 Frequencies --   1442.5484              1728.2330              1751.3704
 Red. masses --      6.0136                12.4417                11.1531
 Frc consts  --      7.3730                21.8945                20.1558
 IR Inten    --    303.8119              1349.4085               905.8583

                    109                    110                    111
                      A                      A                      A
 Frequencies --   1802.0010              1832.0590              2434.3342
 Red. masses --      9.2880                12.7150                 1.0840
 Frc consts  --     17.7698                25.1447                 3.7848
 IR Inten    --      1.9534               105.6355               743.7508

                    112                    113                    114
                      A                      A                      A
 Frequencies --   2448.4193              2451.8279              2499.6469
 Red. masses --      1.0819                 1.0841                 1.0837
 Frc consts  --      3.8212                 3.8398                 3.9894
 IR Inten    --    827.3638               195.1160               330.2617

                    115                    116                    117
                      A                      A                      A
 Frequencies --   2578.0840              2590.0887              2590.5807
 Red. masses --      1.0227                 1.0246                 1.0282
 Frc consts  --      4.0048                 4.0499                 4.0656
 IR Inten    --     45.1351                68.6968                47.5520

                    118                    119                    120
                      A                      A                      A
 Frequencies --   2602.2416              2607.2410              2616.7237
 Red. masses --      1.0827                 1.0396                 1.0425
 Frc consts  --      4.3195                 4.1636                 4.2057
 IR Inten    --     28.2651               202.8905                23.3066

                    121                    122                    123
                      A                      A                      A
 Frequencies --   2630.1514              2637.4235              2648.6798
 Red. masses --      1.0809                 1.0845                 1.0654
 Frc consts  --      4.4055                 4.4446                 4.4037
 IR Inten    --    170.5657               225.2999               234.2032

                    124                    125                    126
                      A                      A                      A
 Frequencies --   2656.0801              2661.8305              2662.5641
 Red. masses --      1.0736                 1.0868                 1.0670
 Frc consts  --      4.4626                 4.5369                 4.4569
 IR Inten    --     42.0088                80.8906               115.7896

                    127                    128                    129
                      A                      A                      A
 Frequencies --   2669.1902              2672.0780              2690.1405
 Red. masses --      1.0864                 1.0670                 1.0862
 Frc consts  --      4.5602                 4.4885                 4.6314
 IR Inten    --    186.9170                97.0812                68.1693

                    130                    131                    132
                      A                      A                      A
 Frequencies --   2693.2007              2740.7714              2749.2329
 Red. masses --      1.0619                 1.0692                 1.0295
 Frc consts  --      4.5380                 4.7319                 4.5846
 IR Inten    --    135.3403               127.1279                60.1568

                    133                    134                    135
                      A                      A                      A
 Frequencies --   2755.0785              2769.2198              2778.7646
 Red. masses --      1.0784                 1.0336                 1.0318
 Frc consts  --      4.8226                 4.6700                 4.6942
 IR Inten    --    100.8608               134.0000                29.8932

 - Thermochemistry -
 -------------------
 Temperature   298.150 Kelvin.  Pressure   1.00000 Atm.
 Atom     1 has atomic number  6 and mass  12.00000

 Molecular mass:   323.15802 amu.
 Principal axes and moments of inertia in atomic units:
                           1         2         3
     Eigenvalues --  5706.605419926.67975**********
           X            0.99997  -0.00573  -0.00603
           Y            0.00566   0.99990  -0.01309
           Z            0.00611   0.01306   0.99990
 This molecule is an asymmetric top.
 Rotational symmetry number  1.
 Warning -- assumption of classical behavior for rotation
           may cause significant error
 Rotational temperatures (Kelvin)      0.01518     0.00873     0.00675
 Rotational constants (GHZ):           0.31625     0.18181     0.14069
 Zero-point vibrational energy     872737.7 (Joules/Mol)
                                  208.58932 (Kcal/Mol)
 Warning -- explicit consideration of  53 degrees of freedom as
           vibrations may cause significant error
 Vibrational temperatures:     22.07    24.26    27.30    37.12    42.68
          (Kelvin)             63.55    66.93    78.43    84.32   103.71
                              108.88   122.35   129.52   140.53   143.11
                              151.68   158.17   166.69   169.97   177.98
                              185.40   198.32   215.97   233.51   243.33
                              248.34   275.71   279.64   285.62   309.13
                              309.73   326.80   342.66   352.11   368.59
                              396.30   416.97   436.98   453.83   488.01
                              537.83   579.22   596.60   610.65   643.93
                              653.80   738.22   749.29   793.17   805.96
                              822.19   875.98   892.50   959.23  1046.36
                             1172.51  1175.59  1211.90  1288.32  1311.16
                             1341.35  1373.96  1389.72  1407.75  1440.98
                             1463.02  1472.79  1505.38  1523.04  1528.82
                             1552.61  1571.76  1595.38  1623.56  1641.65
                             1653.57  1672.33  1685.02  1689.66  1694.14
                             1712.69  1714.38  1723.79  1755.98  1761.25
                             1783.49  1787.74  1791.77  1802.43  1808.67
                             1812.55  1829.00  1838.58  1854.59  1862.29
                             1863.46  1883.20  1899.09  1906.14  1920.79
                             1936.37  1985.03  1988.44  1991.41  2011.76
                             2075.50  2486.54  2519.83  2592.67  2635.92
                             3502.46  3522.72  3527.63  3596.43  3709.28
                             3726.56  3727.26  3744.04  3751.23  3764.88
                             3784.20  3794.66  3810.85  3821.50  3829.78
                             3830.83  3840.36  3844.52  3870.51  3874.91
                             3943.35  3955.53  3963.94  3984.28  3998.02

 Zero-point correction=                           0.332408 (Hartree/Particle)
 Thermal correction to Energy=                    0.366312
 Thermal correction to Enthalpy=                  0.367256
 Thermal correction to Gibbs Free Energy=         0.261807
 Sum of electronic and zero-point Energies=             -0.363639
 Sum of electronic and thermal Energies=                -0.329735
 Sum of electronic and thermal Enthalpies=              -0.328790
 Sum of electronic and thermal Free Energies=           -0.434240

                     E (Thermal)             CV                S
                      KCal/Mol        Cal/Mol-Kelvin    Cal/Mol-Kelvin
 Total                  229.864            112.490            221.937
 Electronic               0.000              0.000              0.000
 Translational            0.889              2.981             43.214
 Rotational               0.889              2.981             34.940
 Vibrational            228.087            106.528            143.783
 Vibration     1          0.593              1.986              7.161
 Vibration     2          0.593              1.986              6.973
 Vibration     3          0.593              1.986              6.739
 Vibration     4          0.593              1.985              6.129
 Vibration     5          0.593              1.984              5.852
 Vibration     6          0.595              1.980              5.063
 Vibration     7          0.595              1.979              4.960
 Vibration     8          0.596              1.976              4.647
 Vibration     9          0.596              1.974              4.504
 Vibration    10          0.598              1.967              4.096
 Vibration    11          0.599              1.965              4.000
 Vibration    12          0.601              1.960              3.771
 Vibration    13          0.602              1.956              3.660
 Vibration    14          0.603              1.951              3.500
 Vibration    15          0.604              1.949              3.465
 Vibration    16          0.605              1.945              3.352
 Vibration    17          0.606              1.941              3.270
 Vibration    18          0.608              1.936              3.168
 Vibration    19          0.608              1.934              3.131
 Vibration    20          0.610              1.929              3.042
 Vibration    21          0.611              1.924              2.963
 Vibration    22          0.614              1.916              2.834
 Vibration    23          0.618              1.903              2.671
 Vibration    24          0.622              1.889              2.523
 Vibration    25          0.625              1.880              2.445
 Vibration    26          0.626              1.876              2.407
 Vibration    27          0.634              1.851              2.212
 Vibration    28          0.635              1.848              2.186
 Vibration    29          0.637              1.842              2.147
 Vibration    30          0.645              1.818              2.002
 Vibration    31          0.645              1.818              1.998
 Vibration    32          0.651              1.800              1.901
 Vibration    33          0.656              1.782              1.817
 Vibration    34          0.660              1.771              1.768
 Vibration    35          0.666              1.752              1.688
 Vibration    36          0.677              1.719              1.562
 Vibration    37          0.686              1.693              1.475
 Vibration    38          0.695              1.667              1.396
 Vibration    39          0.703              1.644              1.334
 Vibration    40          0.719              1.597              1.216
 Vibration    41          0.745              1.526              1.064
 Vibration    42          0.768              1.465              0.953
 Vibration    43          0.778              1.438              0.910
 Vibration    44          0.786              1.417              0.877
 Vibration    45          0.807              1.366              0.803
 Vibration    46          0.813              1.351              0.783
 Vibration    47          0.868              1.221              0.626
 Vibration    48          0.876              1.204              0.608
 Vibration    49          0.907              1.137              0.542
 Vibration    50          0.916              1.117              0.523
 Vibration    51          0.928              1.093              0.501
 Vibration    52          0.968              1.013              0.435
 Vibration    53          0.980              0.989              0.416

 Normal termination of Gaussian 09 at Fri Aug  7 00:15:04 2020.
