 Gaussian 09, Revision D.01,
 Gaussian 09:  ES64L-G09RevD.01 24-Apr-2013

 ----------------------------------------------------------------------
 # opt freq pm6 scrf=(cpcm,solvent=water) geom=connectivity empiricaldi
 spersion=gd3
 ----------------------------------------------------------------------

 -------------------
 Title Card Required
 -------------------
 Symbolic Z-matrix:
 Charge =  0 Multiplicity = 1

 SCF Done:  E(RPM6D3) = -0.188373448224     A.U. after   16 cycles
 SCF Done:  E(RPM6D3) = -0.188444695721     A.U. after   12 cycles
 SCF Done:  E(RPM6D3) = -0.188411360812     A.U. after   13 cycles
 SCF Done:  E(RPM6D3) = -0.188486152243     A.U. after   12 cycles
 SCF Done:  E(RPM6D3) = -0.188489401437     A.U. after   11 cycles
 SCF Done:  E(RPM6D3) = -0.188489690245     A.U. after   11 cycles
 SCF Done:  E(RPM6D3) = -0.188489559350     A.U. after   11 cycles
 SCF Done:  E(RPM6D3) = -0.188489454017     A.U. after   11 cycles
 SCF Done:  E(RPM6D3) = -0.188489322331     A.U. after    8 cycles
 SCF Done:  E(RPM6D3) = -0.188488974231     A.U. after   10 cycles
 SCF Done:  E(RPM6D3) = -0.188488718445     A.U. after   10 cycles
 SCF Done:  E(RPM6D3) = -0.188488449148     A.U. after   10 cycles
 Optimization completed.
    -- Stationary point found.
 Normal termination of Gaussian 09 at Tue Sep  8 22:41:34 2020.

 -------------------------------------------------------------
 #N Geom=AllCheck Guess=TCheck SCRF=Check GenChk RPM6/ZDO Freq
 -------------------------------------------------------------

 Structure from the checkpoint file:  "dmad_cycloaddition_PM6_toluene_water.chk"
 -------------------
 Title Card Required
 -------------------
 Charge =  0 Multiplicity = 1

                         Standard orientation:
 ---------------------------------------------------------------------
 Center     Atomic      Atomic             Coordinates (Angstroms)
 Number     Number       Type             X           Y           Z
 ---------------------------------------------------------------------
      1          7           0        0.380440   -0.262933    0.405773
      2          7           0       -0.380442    0.262926   -0.405787
      3          6           0        1.789018   -0.513406    0.055160
      4          6           0       -1.789018    0.513406   -0.055172
      5          8           0       -2.244329    1.621111    0.066231
      6          8           0        2.244333   -1.621109   -0.066243
      7          8           0       -2.451943   -0.667976   -0.060515
      8          8           0        2.451942    0.667976    0.060522
      9          6           0        3.911860    0.609544   -0.041728
     10          1           0        4.174535    1.676677   -0.053958
     11          1           0        4.320954    0.102252    0.837640
     12          1           0        4.200390    0.111208   -0.972522
     13          6           0       -3.911861   -0.609540    0.041750
     14          1           0       -4.174537   -1.676672    0.053993
     15          1           0       -4.200380   -0.111194    0.972543
     16          1           0       -4.320963   -0.102256   -0.837619
 ---------------------------------------------------------------------

 SCF Done:  E(RPM6D3) = -0.188488449148     A.U. after    2 cycles

 The electronic state is 1-A.
 Alpha  occ. eigenvalues --   -1.33127  -1.22563  -1.21732  -1.17119  -1.16686
 Alpha  occ. eigenvalues --   -1.04834  -0.97176  -0.92304  -0.84069  -0.76964
 Alpha  occ. eigenvalues --   -0.71872  -0.67659  -0.66029  -0.65026  -0.63573
 Alpha  occ. eigenvalues --   -0.61452  -0.57328  -0.56994  -0.56470  -0.54804
 Alpha  occ. eigenvalues --   -0.54426  -0.50918  -0.50828  -0.46553  -0.46273
 Alpha  occ. eigenvalues --   -0.44651  -0.44634  -0.38747
 Alpha virt. eigenvalues --   -0.06592  -0.03202  -0.01670  -0.00267   0.02386
 Alpha virt. eigenvalues --    0.04910   0.08489   0.08854   0.09620   0.13265
 Alpha virt. eigenvalues --    0.13528   0.13668   0.18165   0.18166   0.18188

 Mulliken charges:
               1
     1  N   -0.127108
     2  N   -0.127109
     3  C    0.669414
     4  C    0.669414
     5  O   -0.483884
     6  O   -0.483885
     7  O   -0.389332
     8  O   -0.389332
     9  C   -0.174843
    10  H    0.180187
    11  H    0.162908
    12  H    0.162659
    13  C   -0.174843
    14  H    0.180187
    15  H    0.162659
    16  H    0.162908
 Sum of Mulliken charges =   0.00000

 Dipole moment (field-independent basis, Debye):
    X=              0.0000    Y=              0.0000    Z=              0.0000  Tot=              0.0000
 N-N= 3.184986842441D+02 E-N=-5.642823284340D+02  KE=-3.221189975002D+01
  Exact polarizability: 141.441 -15.805  97.128  -2.477   0.995  29.119
 Approx polarizability:  68.982  -8.653  63.379   0.371   0.152  18.780
 D2PCM: C-PCM CHGder 2nd derivatives, FixD1E=F FixD2E=F DoIter=F DoCFld=F I1PDM=0
 Calling FoFJK, ICntrl=    100127 FMM=F ISym2X=0 I1Cent= 0 IOpClX= 0 NMat=1 NMatS=1 NMatT=0.
 Full mass-weighted force constant matrix:
 Low frequencies ---   -8.7575   -5.7556   -0.0212   -0.0082   -0.0058    6.1218
 Low frequencies ---   27.2325   65.5171   71.5603
 Diagonal vibrational polarizability:
       84.8988617      51.2670912     361.1059014

                      1                      2                      3
                      A                      A                      A
 Frequencies --     27.2325                65.5171                71.5603
 Red. masses --      5.2827                 4.1844                 1.4767
 Frc consts  --      0.0023                 0.0106                 0.0045
 IR Inten    --      8.9777                 5.6459                 1.7660

                      4                      5                      6
                      A                      A                      A
 Frequencies --     78.0370                93.4322                97.7197
 Red. masses --      1.1193                 7.5049                 2.3359
 Frc consts  --      0.0040                 0.0386                 0.0131
 IR Inten    --      0.0000                 0.0000                 0.5247

                      7                      8                      9
                      A                      A                      A
 Frequencies --    132.0306               205.1579               216.6651
 Red. masses --      3.4163                 7.2584                 7.0622
 Frc consts  --      0.0351                 0.1800                 0.1953
 IR Inten    --      0.0000                27.6314                 0.0000

                     10                     11                     12
                      A                      A                      A
 Frequencies --    252.8427               296.8497               388.4000
 Red. masses --      4.7638                 4.6965                13.0449
 Frc consts  --      0.1794                 0.2438                 1.1594
 IR Inten    --     50.6397                 0.0000                 0.0000

                     13                     14                     15
                      A                      A                      A
 Frequencies --    495.4663               513.1219               576.9808
 Red. masses --      9.8172                10.0324                 7.0753
 Frc consts  --      1.4199                 1.5563                 1.3878
 IR Inten    --     36.6176                 0.0000               118.3886

                     16                     17                     18
                      A                      A                      A
 Frequencies --    664.0102               742.4224               922.0582
 Red. masses --     12.4692                 6.8866                 4.6847
 Frc consts  --      3.2392                 2.2364                 2.3467
 IR Inten    --    143.1425                 0.0000                 0.0000

                     19                     20                     21
                      A                      A                      A
 Frequencies --    928.8217              1049.4113              1056.2832
 Red. masses --      3.6505                 2.3873                 1.2425
 Frc consts  --      1.8555                 1.5490                 0.8168
 IR Inten    --    122.9856                 0.0000                 9.1727

                     22                     23                     24
                      A                      A                      A
 Frequencies --   1062.2985              1073.6085              1101.5119
 Red. masses --      2.1011                10.7495                 1.8651
 Frc consts  --      1.3970                 7.3001                 1.3333
 IR Inten    --      0.0000               204.7526               302.6454

                     25                     26                     27
                      A                      A                      A
 Frequencies --   1102.4159              1182.8666              1193.0045
 Red. masses --      1.7369                 5.5323                 5.3421
 Frc consts  --      1.2437                 4.5606                 4.4796
 IR Inten    --      0.0000                 0.0000              1076.8307

                     28                     29                     30
                      A                      A                      A
 Frequencies --   1213.4537              1213.5009              1226.6783
 Red. masses --      1.0584                 1.0584                 1.0756
 Frc consts  --      0.9182                 0.9183                 0.9536
 IR Inten    --    113.9568                 0.0004                 0.0000

                     31                     32                     33
                      A                      A                      A
 Frequencies --   1226.7530              1320.7902              1320.8432
 Red. masses --      1.0775                 1.2021                 1.2018
 Frc consts  --      0.9554                 1.2355                 1.2353
 IR Inten    --    131.9001               178.6072                 0.0002

                     34                     35                     36
                      A                      A                      A
 Frequencies --   1777.1900              1783.2508              1890.3298
 Red. masses --     12.9508                12.9631                14.0035
 Frc consts  --     24.0998                24.2876                29.4823
 IR Inten    --   2189.6068                 0.0000                 0.0000

                     37                     38                     39
                      A                      A                      A
 Frequencies --   2666.7057              2666.7173              2669.4329
 Red. masses --      1.0932                 1.0932                 1.0925
 Frc consts  --      4.5802                 4.5802                 4.5868
 IR Inten    --    211.3476                 0.0028               282.6455

                     40                     41                     42
                      A                      A                      A
 Frequencies --   2669.4546              2747.8044              2748.1882
 Red. masses --      1.0925                 1.0216                 1.0216
 Frc consts  --      4.5871                 4.5447                 4.5459
 IR Inten    --      0.0017               112.0733                 0.0000

 - Thermochemistry -
 -------------------
 Temperature   298.150 Kelvin.  Pressure   1.00000 Atm.
 Atom     1 has atomic number  7 and mass  14.00307

 Molecular mass:   146.03276 amu.
 Principal axes and moments of inertia in atomic units:
                           1         2         3
     Eigenvalues --   461.493573280.136403682.29535
           X            0.99980   0.01986  -0.00156
           Y           -0.01986   0.99980  -0.00218
           Z            0.00152   0.00221   1.00000
 This molecule is an asymmetric top.
 Rotational symmetry number  1.
 Warning -- assumption of classical behavior for rotation
           may cause significant error
 Rotational temperatures (Kelvin)      0.18768     0.02641     0.02352
 Rotational constants (GHZ):           3.91065     0.55020     0.49011
 Zero-point vibrational energy     267549.7 (Joules/Mol)
                                   63.94592 (Kcal/Mol)
 Warning -- explicit consideration of  15 degrees of freedom as
           vibrations may cause significant error
 Vibrational temperatures:     39.18    94.26   102.96   112.28   134.43
          (Kelvin)            140.60   189.96   295.18   311.73   363.78
                              427.10   558.82   712.86   738.27   830.15
                              955.36  1068.18  1326.63  1336.37  1509.87
                             1519.75  1528.41  1544.68  1584.83  1586.13
                             1701.88  1716.47  1745.89  1745.95  1764.91
                             1765.02  1900.32  1900.40  2556.98  2565.70
                             2719.76  3836.79  3836.81  3840.71  3840.74
                             3953.47  3954.02

 Zero-point correction=                           0.101904 (Hartree/Particle)
 Thermal correction to Energy=                    0.113694
 Thermal correction to Enthalpy=                  0.114638
 Thermal correction to Gibbs Free Energy=         0.061948
 Sum of electronic and zero-point Energies=             -0.086584
 Sum of electronic and thermal Energies=                -0.074795
 Sum of electronic and thermal Enthalpies=              -0.073851
 Sum of electronic and thermal Free Energies=           -0.126541

                     E (Thermal)             CV                S
                      KCal/Mol        Cal/Mol-Kelvin    Cal/Mol-Kelvin
 Total                   71.344             37.767            110.896
 Electronic               0.000              0.000              0.000
 Translational            0.889              2.981             40.847
 Rotational               0.889              2.981             30.101
 Vibrational             69.566             31.805             39.948
 Vibration     1          0.593              1.984              6.021
 Vibration     2          0.597              1.971              4.284
 Vibration     3          0.598              1.968              4.110
 Vibration     4          0.599              1.964              3.940
 Vibration     5          0.602              1.954              3.587
 Vibration     6          0.603              1.951              3.499
 Vibration     7          0.612              1.921              2.916
 Vibration     8          0.640              1.833              2.086
 Vibration     9          0.646              1.816              1.987
 Vibration    10          0.664              1.758              1.711
 Vibration    11          0.690              1.680              1.435
 Vibration    12          0.757              1.495              1.006
 Vibration    13          0.851              1.260              0.670
 Vibration    14          0.868              1.221              0.626
 Vibration    15          0.933              1.081              0.491

 Optimization completed.
    -- Stationary point found.
 Normal termination of Gaussian 09 at Tue Sep  8 22:41:38 2020.
