 Gaussian 09, Revision D.01,
 Gaussian 09:  ES64L-G09RevD.01 24-Apr-2013

 ----------------------------------------------------------------------
 # freq pm6 scrf=(cpcm,solvent=water) geom=connectivity empiricaldisper
 sion=gd3
 ----------------------------------------------------------------------

 -------------------
 Title Card Required
 -------------------
 Symbolic Z-matrix:
 Charge =  0 Multiplicity = 1

                         Standard orientation:
 ---------------------------------------------------------------------
 Center     Atomic      Atomic             Coordinates (Angstroms)
 Number     Number       Type             X           Y           Z
 ---------------------------------------------------------------------
      1          6           0        0.480766    0.888604   -0.736624
      2          6           0        0.894179    1.655624    0.613024
      3          6           0       -1.418539    2.001512    0.376816
      4          6           0       -0.995794    1.295510   -0.924162
      5          1           0        1.112737    0.639106   -1.592481
      6          1           0       -1.648466    0.786323   -1.609924
      7          6           0       -0.377957    1.736815    1.470134
      8          1           0       -0.317130    2.562762    2.201785
      9          1           0       -0.579614    0.820409    2.048909
     10          6           0        0.753498    2.596792   -0.516158
     11          1           0        1.532767    3.135071   -1.027447
     12          6           0       -0.739183    2.805955   -0.750231
     13          1           0       -1.148613    3.644278   -1.279997
     14          1           0        1.847808    1.418425    1.087532
     15          1           0       -2.455504    2.141771    0.653495
     16          7           0       -0.270867   -1.254775    0.703792
     17          7           0        0.465663   -0.929230   -0.298820
     18          6           0       -1.699459   -1.223383    0.585021
     19          6           0        1.865948   -1.361136   -0.126411
     20          8           0        2.215963   -2.508536   -0.285113
     21          8           0       -2.437918   -1.091435    1.537833
     22          8           0        2.694364   -0.300277    0.052301
     23          8           0       -2.137190   -1.481021   -0.688262
     24          6           0       -3.575151   -1.549485   -0.906758
     25          1           0       -3.638985   -1.752701   -1.983298
     26          1           0       -4.001563   -2.366220   -0.317265
     27          1           0       -4.032593   -0.588181   -0.653158
     28          6           0        4.132347   -0.566722    0.022179
     29          1           0        4.395240   -1.271586    0.816505
     30          1           0        4.415610   -0.943629   -0.965198
     31          1           0        4.549053    0.431846    0.210698
 ---------------------------------------------------------------------

 SCF Done:  E(RPM6D3) = -0.327315616751E-01 A.U. after   18 cycles

 The electronic state is 1-A.
 Alpha  occ. eigenvalues --   -1.27245  -1.23491  -1.20497  -1.19123  -1.15743
 Alpha  occ. eigenvalues --   -1.13457  -1.03828  -0.98894  -0.95857  -0.95340
 Alpha  occ. eigenvalues --   -0.91585  -0.85767  -0.82105  -0.75778  -0.75192
 Alpha  occ. eigenvalues --   -0.73049  -0.71153  -0.69803  -0.68186  -0.64451
 Alpha  occ. eigenvalues --   -0.64346  -0.63368  -0.61957  -0.60781  -0.58244
 Alpha  occ. eigenvalues --   -0.56077  -0.55892  -0.55470  -0.54569  -0.54080
 Alpha  occ. eigenvalues --   -0.52682  -0.52145  -0.51012  -0.49796  -0.49281
 Alpha  occ. eigenvalues --   -0.48735  -0.47839  -0.45245  -0.45225  -0.44247
 Alpha  occ. eigenvalues --   -0.44047  -0.43331  -0.43007  -0.41842  -0.38354
 Alpha  occ. eigenvalues --   -0.32854
 Alpha virt. eigenvalues --   -0.07226  -0.00751  -0.00118   0.01579   0.03243
 Alpha virt. eigenvalues --    0.04255   0.06688   0.07712   0.07874   0.09358
 Alpha virt. eigenvalues --    0.09716   0.10754   0.10855   0.10920   0.11655

 Mulliken charges:
               1
     1  C   -0.251358
     2  C   -0.038926
     3  C   -0.116823
     4  C   -0.151033
     5  H    0.200803
     6  H    0.179739
     7  C   -0.279679
     8  H    0.170088
     9  H    0.172978
    10  C   -0.014397
    11  H    0.178808
    12  C   -0.214576
    13  H    0.183650
    14  H    0.185960
    15  H    0.168686
    16  N   -0.420768
    17  N   -0.032073
    18  C    0.726939
    19  C    0.672063
    20  O   -0.532062
    21  O   -0.560242
    22  O   -0.405021
    23  O   -0.445602
    24  C   -0.173295
    25  H    0.170292
    26  H    0.153318
    27  H    0.154649
    28  C   -0.178278
    29  H    0.159052
    30  H    0.160108
    31  H    0.177000
 Sum of Mulliken charges =   0.00000

 Dipole moment (field-independent basis, Debye):
    X=              2.8177    Y=              8.4602    Z=             -3.5851  Tot=              9.6108
 N-N= 7.385220939959D+02 E-N=-1.354870659188D+03  KE=-5.953008494296D+01
  Exact polarizability: 199.069  42.695 331.269 -21.081 -38.958 128.765
 Approx polarizability: 105.429  14.723 135.761 -11.914 -11.693  81.063
 D2PCM: C-PCM CHGder 2nd derivatives, FixD1E=F FixD2E=F DoIter=F DoCFld=F I1PDM=0
 Calling FoFJK, ICntrl=    100127 FMM=F ISym2X=0 I1Cent= 0 IOpClX= 0 NMat=1 NMatS=1 NMatT=0.
 Full mass-weighted force constant matrix:
 Low frequencies --- -931.2221   -3.4958   -0.1452   -0.0330    0.3776    3.3514
 Low frequencies ---    6.2455   22.4038   37.6591
 ******    1 imaginary frequencies (negative Signs) ******
 Diagonal vibrational polarizability:

                      1                      2                      3
                      A                      A                      A
 Frequencies --   -931.2220                22.3386                37.6135
 Red. masses --      8.5954                 6.1575                 4.6017
 Frc consts  --      4.3916                 0.0018                 0.0038
 IR Inten    --  10663.3361                 3.5863                 4.1525

                      4                      5                      6
                      A                      A                      A
 Frequencies --     52.0498                71.0179                78.4618
 Red. masses --      3.6336                 1.2846                 3.2939
 Frc consts  --      0.0058                 0.0038                 0.0119
 IR Inten    --      0.5820                 2.1610                 1.5936

                      7                      8                      9
                      A                      A                      A
 Frequencies --     84.4916                93.9832               102.0555
 Red. masses --      1.2103                 2.9701                 4.1442
 Frc consts  --      0.0051                 0.0155                 0.0254
 IR Inten    --      0.7464                 1.9918                 1.5520

                     10                     11                     12
                      A                      A                      A
 Frequencies --    131.3876               154.1363               169.7291
 Red. masses --      3.7871                 4.9036                 4.7179
 Frc consts  --      0.0385                 0.0686                 0.0801
 IR Inten    --      1.9166                14.8958                 2.7937

                     13                     14                     15
                      A                      A                      A
 Frequencies --    180.5293               209.8856               257.4039
 Red. masses --      4.5657                 6.7787                 4.7956
 Frc consts  --      0.0877                 0.1759                 0.1872
 IR Inten    --      2.4193                29.3198                33.4648

                     16                     17                     18
                      A                      A                      A
 Frequencies --    287.7342               308.9913               340.7000
 Red. masses --      6.3077                 4.7170                10.0358
 Frc consts  --      0.3077                 0.2653                 0.6863
 IR Inten    --     21.1789                12.5037                12.7942

                     19                     20                     21
                      A                      A                      A
 Frequencies --    405.7211               433.6735               492.3438
 Red. masses --      2.0089                 8.4854                 3.1065
 Frc consts  --      0.1948                 0.9403                 0.4437
 IR Inten    --     10.4628                 9.9272                 8.1831

                     22                     23                     24
                      A                      A                      A
 Frequencies --    535.6225               568.7986               602.8281
 Red. masses --      6.7636                 7.4601                 7.3608
 Frc consts  --      1.1433                 1.4220                 1.5760
 IR Inten    --     31.2823                49.7000                51.5899

                     25                     26                     27
                      A                      A                      A
 Frequencies --    642.0535               659.2542               672.1118
 Red. masses --      4.7511                10.8138                 5.9877
 Frc consts  --      1.1540                 2.7691                 1.5936
 IR Inten    --     20.1787                26.4497                13.9316

                     28                     29                     30
                      A                      A                      A
 Frequencies --    717.7156               741.6521               744.1071
 Red. masses --      5.9273                 7.2675                 5.8022
 Frc consts  --      1.7989                 2.3552                 1.8929
 IR Inten    --     74.3221               126.1467                44.4426

                     31                     32                     33
                      A                      A                      A
 Frequencies --    865.6663               868.7055               878.9266
 Red. masses --      1.6934                 1.6723                 1.5783
 Frc consts  --      0.7477                 0.7436                 0.7183
 IR Inten    --      2.1387                37.9670                85.4207

                     34                     35                     36
                      A                      A                      A
 Frequencies --    913.8408               921.5567               933.3509
 Red. masses --      1.3228                 3.6345                 2.9536
 Frc consts  --      0.6509                 1.8186                 1.5160
 IR Inten    --     52.3228                71.9712                30.3667

                     37                     38                     39
                      A                      A                      A
 Frequencies --    946.8559               984.4864               999.1645
 Red. masses --      2.3466                 1.4928                 1.2830
 Frc consts  --      1.2395                 0.8524                 0.7546
 IR Inten    --     41.2571                 3.5155                 9.4803

                     40                     41                     42
                      A                      A                      A
 Frequencies --   1009.1338              1024.8377              1033.4683
 Red. masses --      1.4923                 1.3552                 1.4391
 Frc consts  --      0.8954                 0.8386                 0.9056
 IR Inten    --      3.4317                20.7418                36.7127

                     43                     44                     45
                      A                      A                      A
 Frequencies --   1057.7622              1059.0934              1062.4098
 Red. masses --      1.3597                 1.2947                 1.2567
 Frc consts  --      0.8963                 0.8556                 0.8357
 IR Inten    --     11.1866                18.4473                 1.9228

                     46                     47                     48
                      A                      A                      A
 Frequencies --   1072.2217              1079.8008              1087.4615
 Red. masses --      4.4978                 1.3910                 1.2403
 Frc consts  --      3.0467                 0.9555                 0.8642
 IR Inten    --     30.6787                35.3027                 2.1564

                     49                     50                     51
                      A                      A                      A
 Frequencies --   1095.0570              1107.2858              1110.2919
 Red. masses --      6.2426                 1.5847                 1.6398
 Frc consts  --      4.4105                 1.1448                 1.1910
 IR Inten    --    380.6787                15.9229                56.4460

                     52                     53                     54
                      A                      A                      A
 Frequencies --   1114.0063              1129.9065              1163.9535
 Red. masses --      1.2394                 1.5402                 2.3878
 Frc consts  --      0.9062                 1.1585                 1.9060
 IR Inten    --     31.7895               161.2581                 9.3138

                     55                     56                     57
                      A                      A                      A
 Frequencies --   1165.0736              1191.3848              1202.8512
 Red. masses --      1.5530                 1.9975                 2.4849
 Frc consts  --      1.2420                 1.6705                 2.1182
 IR Inten    --     10.9781                10.9310                 3.4176

                     58                     59                     60
                      A                      A                      A
 Frequencies --   1208.1600              1217.7148              1221.1487
 Red. masses --      4.4821                 1.0599                 1.0588
 Frc consts  --      3.8546                 0.9260                 0.9303
 IR Inten    --    145.2902                50.7052                48.0293

                     61                     62                     63
                      A                      A                      A
 Frequencies --   1225.6634              1230.1435              1236.1773
 Red. masses --      2.3474                 1.2029                 1.2799
 Frc consts  --      2.0776                 1.0725                 1.1524
 IR Inten    --    556.0801               235.5268               293.0780

                     64                     65                     66
                      A                      A                      A
 Frequencies --   1240.2405              1258.4933              1273.7015
 Red. masses --      1.6110                 2.3909                 1.2007
 Frc consts  --      1.4600                 2.2311                 1.1477
 IR Inten    --     35.9485                46.6222                49.2071

                     67                     68                     69
                      A                      A                      A
 Frequencies --   1323.2564              1325.2804              1370.1181
 Red. masses --      1.2226                 1.2059                 5.1113
 Frc consts  --      1.2613                 1.2479                 5.6533
 IR Inten    --     61.7056               165.0056               166.8521

                     70                     71                     72
                      A                      A                      A
 Frequencies --   1421.7848              1547.2906              1749.9709
 Red. masses --      6.0595                10.5647                12.7919
 Frc consts  --      7.2170                14.9023                23.0805
 IR Inten    --      6.9741              2712.5507              1404.5513

                     73                     74                     75
                      A                      A                      A
 Frequencies --   1757.5430              2665.3863              2669.0689
 Red. masses --     12.9501                 1.0862                 1.0928
 Frc consts  --     23.5687                 4.5464                 4.5866
 IR Inten    --    817.3644               122.5288               100.6331

                     76                     77                     78
                      A                      A                      A
 Frequencies --   2670.9545              2672.8646              2676.1992
 Red. masses --      1.0921                 1.0924                 1.0918
 Frc consts  --      4.5903                 4.5983                 4.6069
 IR Inten    --     88.9084               131.1025               116.1284

                     79                     80                     81
                      A                      A                      A
 Frequencies --   2692.0296              2721.7295              2741.1051
 Red. masses --      1.0738                 1.0744                 1.0732
 Frc consts  --      4.5851                 4.6892                 4.7511
 IR Inten    --    225.2191               174.2973               577.8203

                     82                     83                     84
                      A                      A                      A
 Frequencies --   2745.7150              2750.6433              2753.7556
 Red. masses --      1.0541                 1.0220                 1.0225
 Frc consts  --      4.6819                 4.5559                 4.5685
 IR Inten    --    168.4965                83.2276                30.3042

                     85                     86                     87
                      A                      A                      A
 Frequencies --   2758.6083              2766.1143              2779.2157
 Red. masses --      1.0734                 1.0749                 1.0809
 Frc consts  --      4.8127                 4.8456                 4.9190
 IR Inten    --    107.9573               101.9074               358.8165

 - Thermochemistry -
 -------------------
 Temperature   298.150 Kelvin.  Pressure   1.00000 Atm.
 Atom     1 has atomic number  6 and mass  12.00000

 Molecular mass:   238.09536 amu.
 Principal axes and moments of inertia in atomic units:
                           1         2         3
     Eigenvalues --  2812.708024075.860125799.13540
           X            0.99976   0.01804   0.01276
           Y           -0.01817   0.99979   0.00960
           Z           -0.01258  -0.00983   0.99987
 This molecule is an asymmetric top.
 Rotational symmetry number  1.
 Warning -- assumption of classical behavior for rotation
           may cause significant error
 Rotational temperatures (Kelvin)      0.03079     0.02125     0.01494
 Rotational constants (GHZ):           0.64164     0.44279     0.31121
    1 imaginary frequencies ignored.
 Zero-point vibrational energy     583460.8 (Joules/Mol)
                                  139.45047 (Kcal/Mol)
 Warning -- explicit consideration of  23 degrees of freedom as
           vibrations may cause significant error
 Vibrational temperatures:     32.14    54.12    74.89   102.18   112.89
          (Kelvin)            121.56   135.22   146.83   189.04   221.77
                              244.20   259.74   301.98   370.35   413.98
                              444.57   490.19   583.74   623.96   708.37
                              770.64   818.37   867.33   923.77   948.52
                              967.02  1032.63  1067.07  1070.60  1245.50
                             1249.87  1264.58  1314.81  1325.91  1342.88
                             1362.31  1416.45  1437.57  1451.92  1474.51
                             1486.93  1521.88  1523.80  1528.57  1542.69
                             1553.59  1564.61  1575.54  1593.14  1597.46
                             1602.80  1625.68  1674.67  1676.28  1714.13
                             1730.63  1738.27  1752.02  1756.96  1763.45
                             1769.90  1778.58  1784.43  1810.69  1832.57
                             1903.87  1906.78  1971.29  2045.63  2226.20
                             2517.81  2528.71  3834.89  3840.19  3842.90
                             3845.65  3850.45  3873.23  3915.96  3943.83
                             3950.47  3957.56  3962.04  3969.02  3979.82
                             3998.67

 Zero-point correction=                           0.222228 (Hartree/Particle)
 Thermal correction to Energy=                    0.239335
 Thermal correction to Enthalpy=                  0.240279
 Thermal correction to Gibbs Free Energy=         0.175210
 Sum of electronic and zero-point Energies=              0.189497
 Sum of electronic and thermal Energies=                 0.206603
 Sum of electronic and thermal Enthalpies=               0.207548
 Sum of electronic and thermal Free Energies=            0.142478

                     E (Thermal)             CV                S
                      KCal/Mol        Cal/Mol-Kelvin    Cal/Mol-Kelvin
 Total                  150.185             61.880            136.950
 Electronic               0.000              0.000              0.000
 Translational            0.889              2.981             42.304
 Rotational               0.889              2.981             32.564
 Vibrational            148.407             55.918             62.082
 Vibration     1          0.593              1.985              6.415
 Vibration     2          0.594              1.982              5.381
 Vibration     3          0.596              1.977              4.738
 Vibration     4          0.598              1.968              4.125
 Vibration     5          0.600              1.964              3.929
 Vibration     6          0.601              1.960              3.784
 Vibration     7          0.603              1.953              3.575
 Vibration     8          0.604              1.948              3.415
 Vibration     9          0.612              1.922              2.926
 Vibration    10          0.620              1.898              2.621
 Vibration    11          0.625              1.880              2.438
 Vibration    12          0.629              1.866              2.323
 Vibration    13          0.642              1.826              2.045
 Vibration    14          0.667              1.750              1.679
 Vibration    15          0.685              1.697              1.487
 Vibration    16          0.698              1.657              1.368
 Vibration    17          0.720              1.594              1.209
 Vibration    18          0.771              1.458              0.942
 Vibration    19          0.794              1.397              0.847
 Vibration    20          0.848              1.267              0.678
 Vibration    21          0.891              1.171              0.575
 Vibration    22          0.925              1.099              0.507
 Vibration    23          0.961              1.026              0.445

 Normal termination of Gaussian 09 at Wed Sep  9 11:10:58 2020.
