 Gaussian 09, Revision D.01,
 Gaussian 09:  ES64L-G09RevD.01 24-Apr-2013

 ----------------------------------------------------------------------
 # opt freq pm6 scrf=(cpcm,solvent=water) geom=connectivity empiricaldi
 spersion=gd3
 ----------------------------------------------------------------------

 -------------------
 Title Card Required
 -------------------
 Symbolic Z-matrix:
 Charge =  0 Multiplicity = 3

 SCF Done:  E(UPM6D3) = -0.125499129976     A.U. after   21 cycles
 SCF Done:  E(UPM6D3) = -0.125558130942     A.U. after   17 cycles
 SCF Done:  E(UPM6D3) = -0.125528822057     A.U. after   17 cycles
 SCF Done:  E(UPM6D3) = -0.125628589708     A.U. after   17 cycles
 SCF Done:  E(UPM6D3) = -0.125724632689     A.U. after   15 cycles
 SCF Done:  E(UPM6D3) = -0.125723299939     A.U. after   15 cycles
 SCF Done:  E(UPM6D3) = -0.125730443335     A.U. after   14 cycles
 SCF Done:  E(UPM6D3) = -0.125729658490     A.U. after   13 cycles
 SCF Done:  E(UPM6D3) = -0.125729764737     A.U. after   10 cycles
 SCF Done:  E(UPM6D3) = -0.125729800941     A.U. after   11 cycles
 Optimization completed.
    -- Stationary point found.
 Normal termination of Gaussian 09 at Mon Jul 12 13:44:24 2021.

 -------------------------------------------------------------
 #N Geom=AllCheck Guess=TCheck SCRF=Check GenChk UPM6/ZDO Freq
 -------------------------------------------------------------

 Structure from the checkpoint file:  "product_cycloaddition_m062x_toluene_2.chk"
 -------------------
 Title Card Required
 -------------------
 Charge =  0 Multiplicity = 3

                         Standard orientation:
 ---------------------------------------------------------------------
 Center     Atomic      Atomic             Coordinates (Angstroms)
 Number     Number       Type             X           Y           Z
 ---------------------------------------------------------------------
      1          6           0        0.441899    0.703008   -0.540581
      2          6           0        0.751433    1.819123    0.546617
      3          6           0       -1.581368    1.767376    0.424962
      4          6           0       -1.010045    1.116074   -0.840976
      5          1           0        1.097054    0.814955   -1.444229
      6          1           0       -1.590409    0.578582   -1.578418
      7          6           0       -0.483552    1.702546    1.503605
      8          1           0       -0.540143    2.540000    2.215547
      9          1           0       -0.499021    0.777176    2.093597
     10          6           0        0.348758    3.029592   -0.266480
     11          1           0        0.896955    3.914576   -0.450095
     12          6           0       -1.019494    2.667275   -0.704416
     13          1           0       -1.621298    3.313738   -1.325210
     14          1           0        1.742303    1.791111    1.001974
     15          1           0       -2.623342    1.727941    0.703476
     16          7           0       -0.213958   -1.517082    0.505872
     17          7           0        0.653182   -0.690473   -0.034209
     18          6           0       -1.634227   -1.369297    0.455111
     19          6           0        2.027191   -1.185617    0.046435
     20          8           0        2.372535   -2.284943    0.399104
     21          8           0       -2.347790   -1.310063    1.431774
     22          8           0        2.845867   -0.181878   -0.380299
     23          8           0       -2.084945   -1.519723   -0.829351
     24          6           0       -3.528571   -1.609508   -1.020289
     25          1           0       -3.609765   -1.718001   -2.109703
     26          1           0       -3.917389   -2.488172   -0.497307
     27          1           0       -4.004763   -0.687668   -0.671542
     28          6           0        4.276033   -0.496857   -0.419257
     29          1           0        4.693937    0.447682   -0.795496
     30          1           0        4.632001   -0.724331    0.590433
     31          1           0        4.455643   -1.324140   -1.112889
 ---------------------------------------------------------------------

 SCF Done:  E(UPM6D3) = -0.125729800941     A.U. after    2 cycles

 The electronic state is 3-A.
 Alpha  occ. eigenvalues --   -1.29394  -1.22013  -1.20313  -1.19830  -1.16865
 Alpha  occ. eigenvalues --   -1.14598  -1.07743  -0.97231  -0.96273  -0.94579
 Alpha  occ. eigenvalues --   -0.91781  -0.90344  -0.83583  -0.78593  -0.74737
 Alpha  occ. eigenvalues --   -0.73000  -0.71040  -0.70241  -0.68528  -0.66701
 Alpha  occ. eigenvalues --   -0.64599  -0.64210  -0.63694  -0.62334  -0.59622
 Alpha  occ. eigenvalues --   -0.57024  -0.56578  -0.56393  -0.54450  -0.53873
 Alpha  occ. eigenvalues --   -0.53152  -0.51576  -0.50747  -0.50239  -0.49300
 Alpha  occ. eigenvalues --   -0.48404  -0.47301  -0.46564  -0.45716  -0.45297
 Alpha  occ. eigenvalues --   -0.44655  -0.43847  -0.43223  -0.42004  -0.41658
 Alpha  occ. eigenvalues --   -0.36745  -0.34179
 Alpha virt. eigenvalues --   -0.04225  -0.00077   0.00354   0.02268   0.04104
 Alpha virt. eigenvalues --    0.06788   0.07229   0.08531   0.09368   0.10050
 Alpha virt. eigenvalues --    0.10321   0.10956   0.11797   0.11960   0.12461

  Beta  occ. eigenvalues --   -1.26597  -1.21598  -1.20036  -1.19338  -1.16706
  Beta  occ. eigenvalues --   -1.14299  -1.05881  -0.96994  -0.96107  -0.94110
  Beta  occ. eigenvalues --   -0.91131  -0.89633  -0.83266  -0.77727  -0.74293
  Beta  occ. eigenvalues --   -0.72573  -0.70542  -0.69672  -0.68061  -0.65543
  Beta  occ. eigenvalues --   -0.64126  -0.63921  -0.63260  -0.62199  -0.58535
  Beta  occ. eigenvalues --   -0.56636  -0.56208  -0.55452  -0.54175  -0.53566
  Beta  occ. eigenvalues --   -0.51310  -0.50607  -0.49893  -0.49246  -0.48997
  Beta  occ. eigenvalues --   -0.47614  -0.46791  -0.45300  -0.44999  -0.44318
  Beta  occ. eigenvalues --   -0.43586  -0.43482  -0.42455  -0.41401  -0.40560
  Beta virt. eigenvalues --   -0.04898  -0.02792   0.00460   0.00548   0.01589
  Beta virt. eigenvalues --    0.04033   0.04607   0.07506   0.08378   0.08736
  Beta virt. eigenvalues --    0.09724   0.10554   0.10760   0.11600   0.12077

 Mulliken charges and spin densities:
               1          2
     1  C    0.021171  -0.004443
     2  C   -0.100957  -0.046435
     3  C   -0.119746   0.063194
     4  C   -0.234619   0.066926
     5  H    0.177090   0.002920
     6  H    0.184092  -0.001864
     7  C   -0.280617   0.026561
     8  H    0.158414  -0.000880
     9  H    0.152578  -0.000653
    10  C   -0.185346   1.013925
    11  H    0.160728  -0.029806
    12  C   -0.144098  -0.102510
    13  H    0.167970   0.002964
    14  H    0.155205   0.001573
    15  H    0.163477  -0.001497
    16  N   -0.379894   0.620969
    17  N   -0.100051   0.383102
    18  C    0.721719  -0.034024
    19  C    0.710206  -0.018745
    20  O   -0.499262   0.037885
    21  O   -0.543469  -0.000857
    22  O   -0.400387   0.001938
    23  O   -0.433361   0.021000
    24  C   -0.173235  -0.000144
    25  H    0.173431   0.000930
    26  H    0.156351   0.000099
    27  H    0.157220  -0.000044
    28  C   -0.168909  -0.002379
    29  H    0.180553  -0.000209
    30  H    0.162098   0.000233
    31  H    0.161647   0.000273
 Sum of Mulliken charges =   0.00000   2.00000

 Dipole moment (field-independent basis, Debye):
    X=              1.9101    Y=              5.9237    Z=             -4.5276  Tot=              7.6966
 N-N= 7.363060502412D+02 E-N=-1.350118817006D+03  KE=-5.953158784512D+01
  Exact polarizability: 186.567   8.022 137.451 -13.951 -16.630 114.273
 Approx polarizability:  96.726   2.963  79.957  -7.011 -10.783  71.160
 D2PCM: C-PCM CHGder 2nd derivatives, FixD1E=F FixD2E=F DoIter=F DoCFld=F I1PDM=0
 Calling FoFJK, ICntrl=    100127 FMM=F ISym2X=0 I1Cent= 0 IOpClX= 1 NMat=1 NMatS=1 NMatT=0.
 Full mass-weighted force constant matrix:
 Low frequencies ---   -8.3690   -0.1786   -0.0594    0.0643    5.0424    8.1899
 Low frequencies ---   26.5579   38.5197   48.8157
 Diagonal vibrational polarizability:
      106.5736724      99.6536420     216.7648253

                      1                      2                      3
                      A                      A                      A
 Frequencies --     26.2765                38.4580                48.8058
 Red. masses --      4.7433                 3.8858                 3.8169
 Frc consts  --      0.0019                 0.0034                 0.0054
 IR Inten    --      3.7681                 0.0784                 4.7196

                      4                      5                      6
                      A                      A                      A
 Frequencies --     67.8943                75.3029                93.1019
 Red. masses --      3.8974                 1.3879                 1.7097
 Frc consts  --      0.0106                 0.0046                 0.0087
 IR Inten    --      6.0653                 0.8387                 1.7966

                      7                      8                      9
                      A                      A                      A
 Frequencies --     97.5373               102.8113               120.2647
 Red. masses --      1.9175                 3.9596                 3.5227
 Frc consts  --      0.0107                 0.0247                 0.0300
 IR Inten    --      0.4027                 0.2825                 1.9787

                     10                     11                     12
                      A                      A                      A
 Frequencies --    136.5504               169.3687               202.9637
 Red. masses --      4.5279                 5.1240                 4.9009
 Frc consts  --      0.0497                 0.0866                 0.1189
 IR Inten    --     10.7109                 4.0917                10.6822

                     13                     14                     15
                      A                      A                      A
 Frequencies --    242.1569               263.9508               303.1430
 Red. masses --      5.6115                 4.9174                 5.4605
 Frc consts  --      0.1939                 0.2018                 0.2956
 IR Inten    --      4.9811                26.4699                 5.9195

                     16                     17                     18
                      A                      A                      A
 Frequencies --    330.0742               341.7780               379.3650
 Red. masses --      3.9473                 2.7062                 2.8451
 Frc consts  --      0.2534                 0.1862                 0.2412
 IR Inten    --     29.7513                 3.2127                 4.2816

                     19                     20                     21
                      A                      A                      A
 Frequencies --    409.1894               429.2388               484.9607
 Red. masses --      8.0959                 2.1546                 7.7061
 Frc consts  --      0.7987                 0.2339                 1.0678
 IR Inten    --     26.6060                 4.9097                23.7732

                     22                     23                     24
                      A                      A                      A
 Frequencies --    584.6407               596.0065               621.1178
 Red. masses --      7.1221                11.1587                 7.3723
 Frc consts  --      1.4343                 2.3354                 1.6757
 IR Inten    --     43.6642               102.4148                34.3024

                     25                     26                     27
                      A                      A                      A
 Frequencies --    647.0988               663.3537               677.5978
 Red. masses --      5.3844                 2.4085                 4.5992
 Frc consts  --      1.3284                 0.6244                 1.2442
 IR Inten    --      1.9214                50.4045                42.8845

                     28                     29                     30
                      A                      A                      A
 Frequencies --    732.6883               753.2534               848.0840
 Red. masses --      6.7424                 5.8127                 3.2881
 Frc consts  --      2.1326                 1.9432                 1.3934
 IR Inten    --     82.8599                35.0464                14.8662

                     31                     32                     33
                      A                      A                      A
 Frequencies --    866.9068               877.5190               889.7429
 Red. masses --      4.1281                 2.4143                 1.3286
 Frc consts  --      1.8279                 1.0953                 0.6197
 IR Inten    --      2.1846                76.4955                28.3772

                     34                     35                     36
                      A                      A                      A
 Frequencies --    925.3810               948.8996               952.4177
 Red. masses --      3.0359                 1.8663                 1.9565
 Frc consts  --      1.5317                 0.9901                 1.0456
 IR Inten    --     54.0732                20.3650                21.8839

                     37                     38                     39
                      A                      A                      A
 Frequencies --    984.4414               989.9914              1018.7437
 Red. masses --      1.6300                 1.8987                 1.3482
 Frc consts  --      0.9307                 1.0964                 0.8244
 IR Inten    --      1.0210                12.8885                30.7616

                     40                     41                     42
                      A                      A                      A
 Frequencies --   1023.1214              1038.1903              1054.4815
 Red. masses --      2.5919                 1.4170                 1.2367
 Frc consts  --      1.5985                 0.8999                 0.8102
 IR Inten    --     36.5484                14.4155                 4.5858

                     43                     44                     45
                      A                      A                      A
 Frequencies --   1061.5903              1064.1113              1071.0351
 Red. masses --      1.2488                 1.2711                 1.3999
 Frc consts  --      0.8292                 0.8480                 0.9461
 IR Inten    --      7.8490                 7.8520                 1.9986

                     46                     47                     48
                      A                      A                      A
 Frequencies --   1083.1356              1088.2665              1088.9067
 Red. masses --      1.3985                 1.9630                 3.1974
 Frc consts  --      0.9667                 1.3697                 2.2337
 IR Inten    --    111.2259                24.0392               347.5175

                     49                     50                     51
                      A                      A                      A
 Frequencies --   1098.5343              1108.5703              1111.1749
 Red. masses --      2.4869                 1.8715                 1.1922
 Frc consts  --      1.7682                 1.3551                 0.8673
 IR Inten    --     71.3457                62.5128                10.9435

                     52                     53                     54
                      A                      A                      A
 Frequencies --   1134.3704              1165.0600              1174.6522
 Red. masses --      3.4359                 2.3736                 3.4969
 Frc consts  --      2.6049                 1.8983                 2.8428
 IR Inten    --     33.5415               172.7333               113.5301

                     55                     56                     57
                      A                      A                      A
 Frequencies --   1190.4244              1198.6048              1213.5134
 Red. masses --      1.8951                 2.5164                 1.0585
 Frc consts  --      1.5823                 2.1300                 0.9184
 IR Inten    --    468.6281               696.5437                56.2590

                     58                     59                     60
                      A                      A                      A
 Frequencies --   1219.1227              1221.4791              1226.1051
 Red. masses --      1.0603                 1.6332                 1.0967
 Frc consts  --      0.9284                 1.4357                 0.9714
 IR Inten    --     50.5692                10.5968                67.8895

                     61                     62                     63
                      A                      A                      A
 Frequencies --   1229.6564              1234.3179              1253.5212
 Red. masses --      1.9027                 1.2955                 1.9619
 Frc consts  --      1.6950                 1.1629                 1.8163
 IR Inten    --      3.6309                80.9533                54.0356

                     64                     65                     66
                      A                      A                      A
 Frequencies --   1263.7257              1283.5098              1290.5590
 Red. masses --      2.7943                 2.4883                 1.6934
 Frc consts  --      2.6292                 2.4152                 1.6618
 IR Inten    --     39.6863                55.4598                55.9491

                     67                     68                     69
                      A                      A                      A
 Frequencies --   1295.6961              1320.3593              1323.8743
 Red. masses --      1.2398                 1.1948                 1.1932
 Frc consts  --      1.2263                 1.2272                 1.2321
 IR Inten    --     53.0320               132.6406                67.4305

                     70                     71                     72
                      A                      A                      A
 Frequencies --   1400.3792              1653.2780              1756.9768
 Red. masses --      5.8977                12.2250                12.9029
 Frc consts  --      6.8144                19.6876                23.4676
 IR Inten    --      6.6660                45.3066              1030.0701

                     73                     74                     75
                      A                      A                      A
 Frequencies --   1779.9827              2655.6283              2667.2335
 Red. masses --     12.8179                 1.0666                 1.0932
 Frc consts  --     23.9276                 4.4320                 4.5822
 IR Inten    --    986.2945               155.7131               104.4348

                     76                     77                     78
                      A                      A                      A
 Frequencies --   2669.5370              2669.6336              2674.5475
 Red. masses --      1.0924                 1.0925                 1.0920
 Frc consts  --      4.5866                 4.5875                 4.6024
 IR Inten    --    107.3263               129.8057               126.1342

                     79                     80                     81
                      A                      A                      A
 Frequencies --   2682.0464              2741.2025              2748.1120
 Red. masses --      1.0880                 1.0724                 1.0223
 Frc consts  --      4.6112                 4.7477                 4.5486
 IR Inten    --     93.2028               143.5741                63.1061

                     82                     83                     84
                      A                      A                      A
 Frequencies --   2749.1744              2752.3244              2757.9089
 Red. masses --      1.0697                 1.0238                 1.0509
 Frc consts  --      4.7633                 4.5696                 4.7093
 IR Inten    --    169.2964                24.4249                78.2076

                     85                     86                     87
                      A                      A                      A
 Frequencies --   2762.9725              2772.1559              2789.3458
 Red. masses --      1.0736                 1.0755                 1.0814
 Frc consts  --      4.8290                 4.8698                 4.9574
 IR Inten    --    112.0951               172.9949               121.5183

 - Thermochemistry -
 -------------------
 Temperature   298.150 Kelvin.  Pressure   1.00000 Atm.
 Atom     1 has atomic number  6 and mass  12.00000

 Molecular mass:   238.09536 amu.
 Principal axes and moments of inertia in atomic units:
                           1         2         3
     Eigenvalues --  2812.517084193.882545965.68887
           X            0.99984   0.01630   0.00756
           Y           -0.01641   0.99974   0.01590
           Z           -0.00730  -0.01602   0.99984
 This molecule is an asymmetric top.
 Rotational symmetry number  1.
 Warning -- assumption of classical behavior for rotation
           may cause significant error
 Rotational temperatures (Kelvin)      0.03080     0.02065     0.01452
 Rotational constants (GHZ):           0.64168     0.43033     0.30252
 Zero-point vibrational energy     590675.2 (Joules/Mol)
                                  141.17477 (Kcal/Mol)
 Warning -- explicit consideration of  23 degrees of freedom as
           vibrations may cause significant error
 Vibrational temperatures:     37.81    55.33    70.22    97.68   108.34
          (Kelvin)            133.95   140.33   147.92   173.03   196.47
                              243.68   292.02   348.41   379.77   436.15
                              474.90   491.74   545.82   588.73   617.58
                              697.75   841.17   857.52   893.65   931.03
                              954.42   974.91  1054.17  1083.76  1220.20
                             1247.28  1262.55  1280.14  1331.42  1365.25
                             1370.31  1416.39  1424.38  1465.74  1472.04
                             1493.72  1517.16  1527.39  1531.02  1540.98
                             1558.39  1565.77  1566.69  1580.54  1594.98
                             1598.73  1632.10  1676.26  1690.06  1712.75
                             1724.52  1745.97  1754.04  1757.43  1764.09
                             1769.20  1775.91  1803.54  1818.22  1846.68
                             1856.82  1864.22  1899.70  1904.76  2014.83
                             2378.70  2527.89  2560.99  3820.85  3837.55
                             3840.86  3841.00  3848.07  3858.86  3943.97
                             3953.92  3955.44  3959.98  3968.01  3975.30
                             3988.51  4013.24

 Zero-point correction=                           0.224976 (Hartree/Particle)
 Thermal correction to Energy=                    0.242166
 Thermal correction to Enthalpy=                  0.243110
 Thermal correction to Gibbs Free Energy=         0.176993
 Sum of electronic and zero-point Energies=              0.099247
 Sum of electronic and thermal Energies=                 0.116436
 Sum of electronic and thermal Enthalpies=               0.117380
 Sum of electronic and thermal Free Energies=            0.051264

                     E (Thermal)             CV                S
                      KCal/Mol        Cal/Mol-Kelvin    Cal/Mol-Kelvin
 Total                  151.961             62.433            139.154
 Electronic               0.000              0.000              2.183
 Translational            0.889              2.981             42.304
 Rotational               0.889              2.981             32.620
 Vibrational            150.184             56.471             62.046
 Vibration     1          0.593              1.985              6.092
 Vibration     2          0.594              1.982              5.337
 Vibration     3          0.595              1.978              4.865
 Vibration     4          0.598              1.970              4.214
 Vibration     5          0.599              1.965              4.010
 Vibration     6          0.602              1.954              3.594
 Vibration     7          0.603              1.951              3.503
 Vibration     8          0.605              1.947              3.400
 Vibration     9          0.609              1.932              3.096
 Vibration    10          0.614              1.917              2.852
 Vibration    11          0.625              1.880              2.442
 Vibration    12          0.639              1.836              2.106
 Vibration    13          0.658              1.776              1.787
 Vibration    14          0.671              1.739              1.635
 Vibration    15          0.695              1.668              1.399
 Vibration    16          0.713              1.615              1.260
 Vibration    17          0.721              1.592              1.204
 Vibration    18          0.749              1.514              1.042
 Vibration    19          0.774              1.450              0.929
 Vibration    20          0.791              1.407              0.861
 Vibration    21          0.841              1.283              0.697
 Vibration    22          0.942              1.065              0.477
 Vibration    23          0.954              1.040              0.457

 Normal termination of Gaussian 09 at Mon Jul 12 13:44:34 2021.
