 Gaussian 09, Revision D.01,
 Gaussian 09:  ES64L-G09RevD.01 24-Apr-2013

 ----------------------------------------------------------------------
 # opt freq pm6 scrf=(cpcm,solvent=water) geom=connectivity empiricaldi
 spersion=gd3
 ----------------------------------------------------------------------

 -------------------
 Title Card Required
 -------------------
 Symbolic Z-matrix:
 Charge =  0 Multiplicity = 1

 SCF Done:  E(RPM6D3) =  0.117106267893     A.U. after   13 cycles
 SCF Done:  E(RPM6D3) =  0.117102650579     A.U. after    9 cycles
 Optimization completed.
    -- Stationary point found.
 Normal termination of Gaussian 09 at Tue Sep  8 22:38:49 2020.

 -------------------------------------------------------------
 #N Geom=AllCheck Guess=TCheck SCRF=Check GenChk RPM6/ZDO Freq
 -------------------------------------------------------------

 Structure from the checkpoint file:  "quadricyclane_cycloaddition_PM6_toluene_water.chk"
 -------------------
 Title Card Required
 -------------------
 Charge =  0 Multiplicity = 1

                         Standard orientation:
 ---------------------------------------------------------------------
 Center     Atomic      Atomic             Coordinates (Angstroms)
 Number     Number       Type             X           Y           Z
 ---------------------------------------------------------------------
      1          6           0        0.000000    1.093623   -0.716365
      2          6           0       -0.827938    0.830588    0.556378
      3          6           0        0.827938   -0.830588    0.556378
      4          6           0        1.093596   -0.003510   -0.716251
      5          1           0        0.076508    2.015617   -1.249198
      6          1           0        2.015848    0.069911   -1.249210
      7          6           0        0.000000    0.000000    1.541267
      8          1           0       -0.629027   -0.627006    2.192620
      9          1           0        0.629027    0.627006    2.192620
     10          6           0       -1.093596    0.003510   -0.716251
     11          1           0       -2.015848   -0.069911   -1.249210
     12          6           0        0.000000   -1.093623   -0.716365
     13          1           0       -0.076508   -2.015617   -1.249198
     14          1           0       -1.541541    1.546548    0.939414
     15          1           0        1.541541   -1.546548    0.939414
 ---------------------------------------------------------------------

 SCF Done:  E(RPM6D3) =  0.117102650580     A.U. after    2 cycles

 The electronic state is 1-A.
 Alpha  occ. eigenvalues --   -1.22011  -0.97259  -0.93890  -0.81911  -0.72533
 Alpha  occ. eigenvalues --   -0.71410  -0.67241  -0.65694  -0.55014  -0.53625
 Alpha  occ. eigenvalues --   -0.53512  -0.50021  -0.45870  -0.45118  -0.43345
 Alpha  occ. eigenvalues --   -0.40599  -0.39747  -0.36549
 Alpha virt. eigenvalues --    0.06482   0.10097   0.11513   0.12384   0.12873
 Alpha virt. eigenvalues --    0.13594   0.14286   0.16217   0.17373   0.18268
 Alpha virt. eigenvalues --    0.20988   0.21677   0.22295   0.22347   0.22423

 Mulliken charges:
               1
     1  C   -0.176810
     2  C   -0.136834
     3  C   -0.136834
     4  C   -0.176727
     5  H    0.159174
     6  H    0.159169
     7  C   -0.261415
     8  H    0.149249
     9  H    0.149249
    10  C   -0.176727
    11  H    0.159169
    12  C   -0.176810
    13  H    0.159174
    14  H    0.153487
    15  H    0.153487
 Sum of Mulliken charges =   0.00000

 Dipole moment (field-independent basis, Debye):
    X=              0.0000    Y=              0.0000    Z=              0.3466  Tot=              0.3466
 N-N= 1.689292276214D+02 E-N=-2.927224161836D+02  KE=-2.242658225339D+01
 Symmetry A    KE=-1.202294653744D+01
 Symmetry B    KE=-1.040363571596D+01
  Exact polarizability:  54.786   4.199  54.758   0.000   0.000  59.613
 Approx polarizability:  32.714   2.230  32.699   0.000   0.000  34.583
 D2PCM: C-PCM CHGder 2nd derivatives, FixD1E=F FixD2E=F DoIter=F DoCFld=F I1PDM=0
 Calling FoFJK, ICntrl=    100127 FMM=F ISym2X=1 I1Cent= 0 IOpClX= 0 NMat=1 NMatS=1 NMatT=0.
 Full mass-weighted force constant matrix:
 Low frequencies ---  -22.4638  -21.7507   -0.0221   -0.0014    0.0050   13.1986
 Low frequencies ---  361.1678  468.5973  651.5248

                      1                      2                      3
                      B                      A                      B
 Frequencies --    361.1253               468.5874               651.5232
 Red. masses --      1.8135                 2.3468                 5.1803
 Frc consts  --      0.1393                 0.3036                 1.2956
 IR Inten    --      4.1457                 0.0000                 0.3279

                      4                      5                      6
                      A                      A                      B
 Frequencies --    687.7973               690.1442               820.2386
 Red. masses --      5.8391                 4.5766                 3.7696
 Frc consts  --      1.6275                 1.2843                 1.4943
 IR Inten    --      1.1495                 0.0002                 2.5436

                      7                      8                      9
                      B                      B                      A
 Frequencies --    844.1574               855.0808               869.9535
 Red. masses --      1.7529                 1.2746                 1.5914
 Frc consts  --      0.7360                 0.5491                 0.7096
 IR Inten    --      3.0629                70.9313                20.7307

                     10                     11                     12
                      A                      A                      B
 Frequencies --    891.5100               898.9285               955.4839
 Red. masses --      1.5648                 2.1787                 1.6240
 Frc consts  --      0.7328                 1.0373                 0.8735
 IR Inten    --      0.0001                13.5333                 4.5181

                     13                     14                     15
                      B                      A                      B
 Frequencies --    955.8704               983.8039              1022.8858
 Red. masses --      2.0296                 1.4513                 1.2309
 Frc consts  --      1.0926                 0.8276                 0.7588
 IR Inten    --      6.1422                 0.0000                 2.3096

                     16                     17                     18
                      A                      B                      A
 Frequencies --   1027.7535              1029.1093              1033.6578
 Red. masses --      1.3794                 1.4518                 1.5884
 Frc consts  --      0.8585                 0.9059                 0.9999
 IR Inten    --      6.2188                17.6930                 0.0001

                     19                     20                     21
                      B                      A                      A
 Frequencies --   1053.4833              1088.4949              1093.7705
 Red. masses --      1.7057                 1.1391                 1.3681
 Frc consts  --      1.1154                 0.7952                 0.9643
 IR Inten    --     10.3352                 2.0524                 0.0000

                     22                     23                     24
                      B                      A                      A
 Frequencies --   1117.8605              1175.4164              1182.7703
 Red. masses --      1.0581                 6.3793                 1.3585
 Frc consts  --      0.7790                 5.1929                 1.1197
 IR Inten    --      0.6671                 0.0000                 0.0000

                     25                     26                     27
                      B                      B                      A
 Frequencies --   1183.4719              1199.6095              1246.8127
 Red. masses --      2.3281                 2.1295                 2.0729
 Frc consts  --      1.9212                 1.8055                 1.8986
 IR Inten    --     12.3758                 3.5560                20.8012

                     28                     29                     30
                      B                      A                      A
 Frequencies --   1256.1428              1280.9979              1414.4728
 Red. masses --      1.6110                 1.2231                 6.2952
 Frc consts  --      1.4977                 1.1825                 7.4208
 IR Inten    --     15.7224                34.0849                 0.0013

                     31                     32                     33
                      B                      B                      A
 Frequencies --   1430.7387              2684.5973              2755.3948
 Red. masses --      5.8645                 1.0863                 1.0487
 Frc consts  --      7.0730                 4.6127                 4.6911
 IR Inten    --      7.1725                79.6790                80.1613

                     34                     35                     36
                      B                      A                      B
 Frequencies --   2765.1663              2767.3881              2784.2719
 Red. masses --      1.0717                 1.0736                 1.0729
 Frc consts  --      4.8281                 4.8442                 4.9006
 IR Inten    --    155.3748                94.5176               266.5375

                     37                     38                     39
                      A                      B                      A
 Frequencies --   2784.4298              2787.2779              2798.4376
 Red. masses --      1.0761                 1.0771                 1.0862
 Frc consts  --      4.9155                 4.9302                 5.0116
 IR Inten    --      0.0017               153.4232                85.1988

 - Thermochemistry -
 -------------------
 Temperature   298.150 Kelvin.  Pressure   1.00000 Atm.
 Atom     1 has atomic number  6 and mass  12.00000

 Molecular mass:    92.06260 amu.
 Principal axes and moments of inertia in atomic units:
                           1         2         3
     Eigenvalues --   418.90092 421.45143 561.82925
           X           -0.70596   0.00000   0.70825
           Y            0.70825   0.00000   0.70596
           Z            0.00000   1.00000   0.00000
 This molecule is an asymmetric top.
 Rotational symmetry number  2.
 Rotational temperatures (Kelvin)      0.20676     0.20551     0.15416
 Rotational constants (GHZ):           4.30828     4.28220     3.21226
 Zero-point vibrational energy     316404.0 (Joules/Mol)
                                   75.62237 (Kcal/Mol)
 Warning -- explicit consideration of   2 degrees of freedom as
           vibrations may cause significant error
 Vibrational temperatures:    519.58   674.19   937.40   989.59   992.96
          (Kelvin)           1180.14  1214.55  1230.27  1251.67  1282.68
                             1293.36  1374.73  1375.28  1415.47  1471.70
                             1478.71  1480.66  1487.20  1515.73  1566.10
                             1573.69  1608.35  1691.16  1701.74  1702.75
                             1725.97  1793.88  1807.31  1843.07  2035.11
                             2058.51  3862.53  3964.39  3978.45  3981.65
                             4005.94  4006.17  4010.27  4026.32

 Zero-point correction=                           0.120512 (Hartree/Particle)
 Thermal correction to Energy=                    0.125171
 Thermal correction to Enthalpy=                  0.126116
 Thermal correction to Gibbs Free Energy=         0.093209
 Sum of electronic and zero-point Energies=              0.237615
 Sum of electronic and thermal Energies=                 0.242274
 Sum of electronic and thermal Enthalpies=               0.243218
 Sum of electronic and thermal Free Energies=            0.210312

                     E (Thermal)             CV                S
                      KCal/Mol        Cal/Mol-Kelvin    Cal/Mol-Kelvin
 Total                   78.546             20.146             69.258
 Electronic               0.000              0.000              0.000
 Translational            0.889              2.981             39.472
 Rotational               0.889              2.981             24.720
 Vibrational             76.769             14.184              5.066
 Vibration     1          0.735              1.552              1.117
 Vibration     2          0.826              1.320              0.742

 Optimization completed.
    -- Stationary point found.
 Normal termination of Gaussian 09 at Tue Sep  8 22:38:52 2020.
