 Gaussian 09, Revision D.01,
 Gaussian 09:  ES64L-G09RevD.01 24-Apr-2013

 ----------------------------------------------------------------------
 # freq pm6 scrf=(cpcm,solvent=toluene) geom=connectivity empiricaldisp
 ersion=gd3
 ----------------------------------------------------------------------

 -------------------
 Title Card Required
 -------------------
 Symbolic Z-matrix:
 Charge =  0 Multiplicity = 1

                         Standard orientation:
 ---------------------------------------------------------------------
 Center     Atomic      Atomic             Coordinates (Angstroms)
 Number     Number       Type             X           Y           Z
 ---------------------------------------------------------------------
      1          6           0        2.441371    2.798886   -0.584719
      2          6           0        2.910152    1.523071   -0.323767
      3          6           0        2.008059    0.490815    0.036888
      4          6           0        0.626208    0.782161    0.115778
      5          6           0        0.170548    2.097057   -0.141899
      6          6           0        1.062659    3.092768   -0.490879
      7          1           0        3.136966    3.592692   -0.862430
      8          1           0        3.978943    1.317334   -0.394002
      9          1           0       -0.903617    2.305898   -0.055363
     10          1           0        0.714164    4.105662   -0.692049
     11          6           0       -0.322677   -0.273439    0.490133
     12          6           0        2.433472   -0.859320    0.344738
     13          6           0        0.149800   -1.589034    0.745814
     14          1           0       -0.470368   -2.265067    1.340035
     15          6           0        1.568519   -1.838845    0.718639
     16          1           0        1.915373   -2.839744    0.985258
     17          8           0       -1.587590   -0.034063    0.459337
     18         17           0        4.119822   -1.221864    0.255051
     19          6           0       -2.464682   -0.851354   -1.101241
     20          6           0       -1.923051   -2.138109   -0.882486
     21          1           0       -2.562394   -2.873732   -0.387475
     22          6           0       -3.867850   -0.569570   -0.681379
     23          1           0       -3.978742    0.466783   -0.297632
     24          1           0       -4.567781   -0.657623   -1.526898
     25          1           0       -4.233823   -1.235576    0.111518
     26          6           0       -1.902061    0.074332   -2.130858
     27          1           0       -0.802372    0.091584   -2.156968
     28          1           0       -2.236343   -0.224338   -3.138289
     29          1           0       -2.225944    1.116672   -1.987424
     30          6           0       -0.574867   -2.425710   -1.021961
     31          1           0       -0.202843   -3.430002   -0.826976
     32          1           0        0.078445   -1.839377   -1.666380
     33          8           0       -3.112040    2.159163    0.762376
     34          1           0       -2.308668    1.699100    0.438447
     35          1           0       -3.368020    1.663543    1.567911
     36          8           0       -2.930539    0.128230    2.537251
     37          1           0       -2.035510    0.362502    2.796344
     38          1           0       -2.816685   -0.493513    1.787984
 ---------------------------------------------------------------------

 SCF Done:  E(RPM6D3) = -0.184072714838     A.U. after   23 cycles

 The electronic state is 1-A.
 Alpha  occ. eigenvalues --   -1.14333  -1.11896  -1.10588  -1.08180  -1.07711
 Alpha  occ. eigenvalues --   -1.06215  -1.00635  -0.98611  -0.96511  -0.95251
 Alpha  occ. eigenvalues --   -0.92268  -0.89850  -0.82938  -0.81555  -0.80843
 Alpha  occ. eigenvalues --   -0.76200  -0.69799  -0.68748  -0.67852  -0.65922
 Alpha  occ. eigenvalues --   -0.64329  -0.63310  -0.61182  -0.60605  -0.58275
 Alpha  occ. eigenvalues --   -0.57619  -0.57314  -0.55307  -0.54688  -0.53681
 Alpha  occ. eigenvalues --   -0.52942  -0.52489  -0.51672  -0.51444  -0.50824
 Alpha  occ. eigenvalues --   -0.49915  -0.49215  -0.49045  -0.47779  -0.47322
 Alpha  occ. eigenvalues --   -0.47004  -0.46583  -0.45033  -0.43385  -0.42323
 Alpha  occ. eigenvalues --   -0.41810  -0.41181  -0.40283  -0.39089  -0.38036
 Alpha  occ. eigenvalues --   -0.35171  -0.32190
 Alpha virt. eigenvalues --   -0.04009  -0.02829  -0.00703   0.01582   0.02574
 Alpha virt. eigenvalues --    0.03281   0.06302   0.08959   0.11492   0.12322
 Alpha virt. eigenvalues --    0.12664   0.12792   0.12926   0.14382   0.14640

 Mulliken charges:
               1
     1  C   -0.084607
     2  C   -0.203524
     3  C    0.089974
     4  C   -0.185343
     5  C   -0.078525
     6  C   -0.184621
     7  H    0.153698
     8  H    0.172790
     9  H    0.158399
    10  H    0.163085
    11  C    0.442380
    12  C   -0.074119
    13  C   -0.386462
    14  H    0.191246
    15  C   -0.078170
    16  H    0.166394
    17  O   -0.657617
    18  Cl  -0.094904
    19  C    0.532526
    20  C   -0.457917
    21  H    0.184541
    22  C   -0.599765
    23  H    0.217453
    24  H    0.194746
    25  H    0.185676
    26  C   -0.585798
    27  H    0.190793
    28  H    0.193082
    29  H    0.193994
    30  C   -0.014385
    31  H    0.143718
    32  H    0.142022
    33  O   -0.708090
    34  H    0.333634
    35  H    0.339527
    36  O   -0.663192
    37  H    0.324033
    38  H    0.343325
 Sum of Mulliken charges =   0.00000

 Dipole moment (field-independent basis, Debye):
    X=              1.2459    Y=             -3.4264    Z=             -3.9166  Tot=              5.3509
 N-N= 8.648579024157D+02 E-N=-1.594574047192D+03  KE=-6.742537320697D+01
  Exact polarizability: 279.760  18.304 221.295  13.863 -18.560  90.777
 Approx polarizability: 179.503   0.733 152.275   1.104 -16.439  58.665
 PrsmSu:  requested number of processors reduced to:   1 ShMem   1 Linda.
 D2PCM: C-PCM CHGder 2nd derivatives, FixD1E=F FixD2E=F DoIter=F DoCFld=F I1PDM=0
 Calling FoFJK, ICntrl=    100127 FMM=F ISym2X=0 I1Cent= 0 IOpClX= 0 NMat=1 NMatS=1 NMatT=0.
 CoulSu:  requested number of processors reduced to:   2 ShMem   1 Linda.
 Full mass-weighted force constant matrix:
 Low frequencies --- -644.2586   -3.9920   -1.9271   -0.6255    0.3403    0.5781
 Low frequencies ---    2.2295   14.5227   40.7872
 ******    1 imaginary frequencies (negative Signs) ******

                      1                      2                      3
                      A                      A                      A
 Frequencies --   -644.2586                14.1908                40.7749
 Red. masses --     10.1006                 5.4614                 6.2485
 Frc consts  --      2.4701                 0.0006                 0.0061
 IR Inten    --    551.7406                 3.4620                 2.0284

                      4                      5                      6
                      A                      A                      A
 Frequencies --     51.4051                58.3275                68.7544
 Red. masses --      3.2218                 4.1604                 4.5658
 Frc consts  --      0.0050                 0.0083                 0.0127
 IR Inten    --      3.8479                 1.0731                11.2325

                      7                      8                      9
                      A                      A                      A
 Frequencies --     83.2899                94.0321               108.9552
 Red. masses --      2.1898                 2.3872                 2.1889
 Frc consts  --      0.0090                 0.0124                 0.0153
 IR Inten    --     17.3110                10.0187                 2.3350

                     10                     11                     12
                      A                      A                      A
 Frequencies --    108.9923               116.8651               131.3215
 Red. masses --      2.3974                 3.5900                 1.1168
 Frc consts  --      0.0168                 0.0289                 0.0113
 IR Inten    --      1.4973                 7.1295                 1.0436

                     13                     14                     15
                      A                      A                      A
 Frequencies --    174.1284               185.2247               194.6591
 Red. masses --      4.4283                 3.6681                 3.3210
 Frc consts  --      0.0791                 0.0741                 0.0741
 IR Inten    --     94.3724                 2.1325                 3.6845

                     16                     17                     18
                      A                      A                      A
 Frequencies --    195.5297               207.9498               220.6801
 Red. masses --      3.8715                 2.2665                 9.1059
 Frc consts  --      0.0872                 0.0577                 0.2613
 IR Inten    --     44.0459                48.6918                43.5151

                     19                     20                     21
                      A                      A                      A
 Frequencies --    235.7056               267.6190               279.0780
 Red. masses --      1.6852                 2.8416                 1.8610
 Frc consts  --      0.0552                 0.1199                 0.0854
 IR Inten    --     68.2601                12.8116                10.9200

                     22                     23                     24
                      A                      A                      A
 Frequencies --    304.9534               314.1534               341.4376
 Red. masses --      2.9862                 1.5830                 1.9611
 Frc consts  --      0.1636                 0.0920                 0.1347
 IR Inten    --     72.7686                42.9817                 7.4887

                     25                     26                     27
                      A                      A                      A
 Frequencies --    361.1086               377.5678               383.0134
 Red. masses --      3.3285                 1.5955                 2.5701
 Frc consts  --      0.2557                 0.1340                 0.2221
 IR Inten    --      7.0778                10.4795                 2.4013

                     28                     29                     30
                      A                      A                      A
 Frequencies --    400.5201               407.8990               433.0521
 Red. masses --      3.2157                 2.7459                 2.7750
 Frc consts  --      0.3039                 0.2692                 0.3066
 IR Inten    --     17.9797                 1.5199                 7.3531

                     31                     32                     33
                      A                      A                      A
 Frequencies --    448.6946               474.7919               502.7624
 Red. masses --      2.3242                 4.7347                 1.2753
 Frc consts  --      0.2757                 0.6289                 0.1899
 IR Inten    --     21.0768                12.8720               310.9426

                     34                     35                     36
                      A                      A                      A
 Frequencies --    530.5988               538.4916               543.7424
 Red. masses --      3.9319                 3.3595                 2.9844
 Frc consts  --      0.6522                 0.5740                 0.5199
 IR Inten    --     48.1805                18.0171                 4.7724

                     37                     38                     39
                      A                      A                      A
 Frequencies --    565.4963               595.7893               660.6250
 Red. masses --      2.4899                 1.3510                 6.3464
 Frc consts  --      0.4691                 0.2826                 1.6319
 IR Inten    --     69.6651               259.1706                34.5795

                     40                     41                     42
                      A                      A                      A
 Frequencies --    670.2740               756.9202               775.4720
 Red. masses --      4.3460                 6.4656                 4.1676
 Frc consts  --      1.1504                 2.1825                 1.4766
 IR Inten    --     32.2380                10.6283                57.7427

                     43                     44                     45
                      A                      A                      A
 Frequencies --    785.5692               806.5890               812.5472
 Red. masses --      1.6887                 1.8024                 1.8280
 Frc consts  --      0.6140                 0.6909                 0.7111
 IR Inten    --     49.2394                17.8968                68.4502

                     46                     47                     48
                      A                      A                      A
 Frequencies --    892.1999               902.0958               904.3281
 Red. masses --      2.0468                 1.2137                 1.4946
 Frc consts  --      0.9600                 0.5819                 0.7201
 IR Inten    --      0.9804               185.3026                24.9979

                     49                     50                     51
                      A                      A                      A
 Frequencies --    917.2227               927.5167               945.8975
 Red. masses --      1.3715                 1.2856                 1.2970
 Frc consts  --      0.6798                 0.6516                 0.6837
 IR Inten    --     21.0375                32.9509                 2.4698

                     52                     53                     54
                      A                      A                      A
 Frequencies --    956.8862               961.9857               962.2889
 Red. masses --      4.5361                 1.3653                 1.4492
 Frc consts  --      2.4471                 0.7444                 0.7907
 IR Inten    --    139.8715                20.5746                16.3615

                     55                     56                     57
                      A                      A                      A
 Frequencies --    987.3145               988.9167              1044.7306
 Red. masses --      1.6785                 1.5041                 1.5504
 Frc consts  --      0.9640                 0.8667                 0.9970
 IR Inten    --      1.5772                11.4136               168.8294

                     58                     59                     60
                      A                      A                      A
 Frequencies --   1056.1218              1097.1027              1115.9926
 Red. masses --      1.6007                 1.6745                 2.0973
 Frc consts  --      1.0519                 1.1875                 1.5390
 IR Inten    --    230.8300                87.8437                37.7173

                     61                     62                     63
                      A                      A                      A
 Frequencies --   1121.9618              1155.9723              1164.4119
 Red. masses --      1.8502                 1.3124                 1.3790
 Frc consts  --      1.3722                 1.0332                 1.1016
 IR Inten    --      4.2392                10.3296                29.8210

                     64                     65                     66
                      A                      A                      A
 Frequencies --   1191.0109              1193.4698              1204.7565
 Red. masses --      1.0616                 1.2774                 1.0746
 Frc consts  --      0.8872                 1.0720                 0.9190
 IR Inten    --     48.1084                 1.0321               122.0002

                     67                     68                     69
                      A                      A                      A
 Frequencies --   1214.2988              1222.3053              1232.7481
 Red. masses --      1.0658                 1.0758                 1.5625
 Frc consts  --      0.9260                 0.9470                 1.3990
 IR Inten    --     21.8304               117.7878                53.2919

                     70                     71                     72
                      A                      A                      A
 Frequencies --   1251.7451              1287.7375              1293.5540
 Red. masses --      1.3458                 1.3069                 2.1680
 Frc consts  --      1.2424                 1.2769                 2.1373
 IR Inten    --     14.2274                 0.2978                47.8012

                     73                     74                     75
                      A                      A                      A
 Frequencies --   1305.2171              1307.1726              1314.9012
 Red. masses --      1.1771                 1.2745                 1.9260
 Frc consts  --      1.1815                 1.2830                 1.9619
 IR Inten    --    231.6261                54.7154               113.6211

                     76                     77                     78
                      A                      A                      A
 Frequencies --   1321.6586              1363.4370              1389.3102
 Red. masses --      1.2989                 3.1102                 1.9267
 Frc consts  --      1.3368                 3.4065                 2.1911
 IR Inten    --     87.3920               204.2907               269.2755

                     79                     80                     81
                      A                      A                      A
 Frequencies --   1402.7451              1427.0717              1434.2916
 Red. masses --      2.7671                 1.8026                 1.5129
 Frc consts  --      3.2080                 2.1630                 1.8337
 IR Inten    --     96.4172                47.6989               191.2822

                     82                     83                     84
                      A                      A                      A
 Frequencies --   1460.5808              1468.5466              1480.4253
 Red. masses --      3.7962                 4.2191                 4.6412
 Frc consts  --      4.7714                 5.3610                 5.9932
 IR Inten    --     41.7852               200.7133                10.2546

                     85                     86                     87
                      A                      A                      A
 Frequencies --   1520.1546              1594.1733              1615.7853
 Red. masses --      6.2697                 9.8432                10.3644
 Frc consts  --      8.5364                14.7386                15.9427
 IR Inten    --     96.1713               466.3982               392.8680

                     88                     89                     90
                      A                      A                      A
 Frequencies --   1657.2057              1675.4905              2349.0642
 Red. masses --     10.5605                10.3507                 1.0874
 Frc consts  --     17.0879                17.1200                 3.5354
 IR Inten    --     56.6733                88.0811               753.0421

                     91                     92                     93
                      A                      A                      A
 Frequencies --   2450.3488              2528.9056              2619.4834
 Red. masses --      1.0809                 1.0246                 1.0242
 Frc consts  --      3.8238                 3.8606                 4.1405
 IR Inten    --    455.2317               164.9674                93.7375

                     94                     95                     96
                      A                      A                      A
 Frequencies --   2630.1754              2671.7229              2676.9732
 Red. masses --      1.0821                 1.0857                 1.0862
 Frc consts  --      4.4105                 4.5663                 4.5863
 IR Inten    --    201.9713               104.9041               104.0475

                     97                     98                     99
                      A                      A                      A
 Frequencies --   2682.1294              2690.3942              2707.9717
 Red. masses --      1.0872                 1.0930                 1.0713
 Frc consts  --      4.6083                 4.6614                 4.6285
 IR Inten    --    142.9982                23.7032               174.4969

                    100                    101                    102
                      A                      A                      A
 Frequencies --   2733.0171              2737.7530              2740.8514
 Red. masses --      1.0695                 1.0701                 1.0658
 Frc consts  --      4.7065                 4.7258                 4.7172
 IR Inten    --     58.3726                22.8605                77.8243

                    103                    104                    105
                      A                      A                      A
 Frequencies --   2744.9223              2745.9974              2751.0254
 Red. masses --      1.0621                 1.0706                 1.0716
 Frc consts  --      4.7149                 4.7562                 4.7781
 IR Inten    --    369.1843               262.9299               278.9677

                    106                    107                    108
                      A                      A                      A
 Frequencies --   2756.0228              2772.7775              2781.6096
 Red. masses --      1.0777                 1.0337                 1.0326
 Frc consts  --      4.8228                 4.6826                 4.7075
 IR Inten    --    170.5917               172.0028                82.6747

 - Thermochemistry -
 -------------------
 Temperature   298.150 Kelvin.  Pressure   1.00000 Atm.
 Atom     1 has atomic number  6 and mass  12.00000

 Molecular mass:   282.10227 amu.
 Principal axes and moments of inertia in atomic units:
                           1         2         3
     Eigenvalues --  3611.703357233.973178825.97514
           X            0.99979   0.02058   0.00047
           Y           -0.02058   0.99977  -0.00582
           Z           -0.00059   0.00581   0.99998
 This molecule is an asymmetric top.
 Rotational symmetry number  1.
 Warning -- assumption of classical behavior for rotation
           may cause significant error
 Rotational temperatures (Kelvin)      0.02398     0.01197     0.00981
 Rotational constants (GHZ):           0.49969     0.24948     0.20448
    1 imaginary frequencies ignored.
 Zero-point vibrational energy     719753.8 (Joules/Mol)
                                  172.02528 (Kcal/Mol)
 Warning -- explicit consideration of  37 degrees of freedom as
           vibrations may cause significant error
 Vibrational temperatures:     20.42    58.67    73.96    83.92    98.92
          (Kelvin)            119.84   135.29   156.76   156.82   168.14
                              188.94   250.53   266.50   280.07   281.32
                              299.19   317.51   339.13   385.04   401.53
                              438.76   452.00   491.25   519.55   543.24
                              551.07   576.26   586.87   623.06   645.57
                              683.12   723.36   763.41   774.77   782.32
                              813.62   857.21   950.49   964.37  1089.04
                             1115.73  1130.26  1160.50  1169.07  1283.68
                             1297.91  1301.12  1319.68  1334.49  1360.93
                             1376.74  1384.08  1384.52  1420.52  1422.83
                             1503.13  1519.52  1578.48  1605.66  1614.25
                             1663.18  1675.33  1713.60  1717.13  1733.37
                             1747.10  1758.62  1773.65  1800.98  1852.76
                             1861.13  1877.91  1880.73  1891.85  1901.57
                             1961.68  1998.90  2018.23  2053.24  2063.62
                             2101.45  2112.91  2130.00  2187.16  2293.66
                             2324.75  2384.35  2410.65  3379.78  3525.50
                             3638.53  3768.85  3784.23  3844.01  3851.56
                             3858.98  3870.87  3896.16  3932.20  3939.01
                             3943.47  3949.33  3950.87  3958.11  3965.30
                             3989.40  4002.11

 Zero-point correction=                           0.274140 (Hartree/Particle)
 Thermal correction to Energy=                    0.296676
 Thermal correction to Enthalpy=                  0.297620
 Thermal correction to Gibbs Free Energy=         0.221817
 Sum of electronic and zero-point Energies=              0.090067
 Sum of electronic and thermal Energies=                 0.112603
 Sum of electronic and thermal Enthalpies=               0.113548
 Sum of electronic and thermal Free Energies=            0.037745

                     E (Thermal)             CV                S
                      KCal/Mol        Cal/Mol-Kelvin    Cal/Mol-Kelvin
 Total                  186.167             82.465            159.541
 Electronic               0.000              0.000              0.000
 Translational            0.889              2.981             42.809
 Rotational               0.889              2.981             33.799
 Vibrational            184.390             76.503             82.932
 Vibration     1          0.593              1.986              7.316
 Vibration     2          0.594              1.981              5.221
 Vibration     3          0.596              1.977              4.763
 Vibration     4          0.596              1.974              4.513
 Vibration     5          0.598              1.969              4.189
 Vibration     6          0.600              1.961              3.812
 Vibration     7          0.603              1.953              3.574
 Vibration     8          0.606              1.942              3.287
 Vibration     9          0.606              1.942              3.287
 Vibration    10          0.608              1.935              3.152
 Vibration    11          0.612              1.922              2.927
 Vibration    12          0.627              1.874              2.390
 Vibration    13          0.631              1.860              2.275
 Vibration    14          0.635              1.847              2.183
 Vibration    15          0.636              1.846              2.175
 Vibration    16          0.641              1.829              2.062
 Vibration    17          0.647              1.810              1.954
 Vibration    18          0.655              1.786              1.835
 Vibration    19          0.673              1.733              1.612
 Vibration    20          0.679              1.712              1.539
 Vibration    21          0.696              1.664              1.390
 Vibration    22          0.702              1.647              1.340
 Vibration    23          0.721              1.593              1.205
 Vibration    24          0.735              1.552              1.117
 Vibration    25          0.748              1.518              1.049
 Vibration    26          0.752              1.506              1.027
 Vibration    27          0.766              1.469              0.961
 Vibration    28          0.772              1.453              0.934
 Vibration    29          0.794              1.398              0.849
 Vibration    30          0.808              1.364              0.800
 Vibration    31          0.832              1.306              0.724
 Vibration    32          0.858              1.244              0.651
 Vibration    33          0.886              1.182              0.586
 Vibration    34          0.894              1.165              0.569
 Vibration    35          0.899              1.153              0.557
 Vibration    36          0.921              1.106              0.513
 Vibration    37          0.954              1.041              0.457

 Normal termination of Gaussian 09 at Thu Aug 20 15:51:47 2020.
