 Gaussian 09, Revision D.01,
 Gaussian 09:  ES64L-G09RevD.01 24-Apr-2013

 ----------------------------------------------------------------------
 # opt freq pm6 scrf=(cpcm,solvent=water) geom=connectivity empiricaldi
 spersion=gd3
 ----------------------------------------------------------------------

 -------------------
 Title Card Required
 -------------------
 Symbolic Z-matrix:
 Charge =  0 Multiplicity = 1

 SCF Done:  E(RPM6D3) = -0.572323557342     A.U. after   16 cycles
 SCF Done:  E(RPM6D3) = -0.572385113463     A.U. after   14 cycles
 SCF Done:  E(RPM6D3) = -0.572440944101     A.U. after   13 cycles
 SCF Done:  E(RPM6D3) = -0.572467614528     A.U. after   13 cycles
 SCF Done:  E(RPM6D3) = -0.572493765960     A.U. after   12 cycles
 SCF Done:  E(RPM6D3) = -0.572528182063     A.U. after   13 cycles
 SCF Done:  E(RPM6D3) = -0.572560376782     A.U. after   13 cycles
 SCF Done:  E(RPM6D3) = -0.572580194498     A.U. after   13 cycles
 SCF Done:  E(RPM6D3) = -0.572597241708     A.U. after   13 cycles
 SCF Done:  E(RPM6D3) = -0.572616551483     A.U. after   12 cycles
 SCF Done:  E(RPM6D3) = -0.576309704636     A.U. after   11 cycles
 SCF Done:  E(RPM6D3) = -0.576309829717     A.U. after   11 cycles
 SCF Done:  E(RPM6D3) = -0.576309969188     A.U. after   10 cycles
 SCF Done:  E(RPM6D3) = -0.576310091079     A.U. after   10 cycles
 SCF Done:  E(RPM6D3) = -0.576310222421     A.U. after   10 cycles
 SCF Done:  E(RPM6D3) = -0.576310331108     A.U. after   10 cycles
 SCF Done:  E(RPM6D3) = -0.576310399537     A.U. after   10 cycles
 SCF Done:  E(RPM6D3) = -0.576310429850     A.U. after   10 cycles
 SCF Done:  E(RPM6D3) = -0.576310437826     A.U. after   10 cycles
 Optimization completed.
    -- Stationary point found.
 Normal termination of Gaussian 09 at Tue Sep  8 22:56:01 2020.

 -------------------------------------------------------------
 #N Geom=AllCheck Guess=TCheck SCRF=Check GenChk RPM6/ZDO Freq
 -------------------------------------------------------------

 Structure from the checkpoint file:  "dmad_4H2O_cycloaddition_PM6_toluene_water.chk"
 -------------------
 Title Card Required
 -------------------
 Charge =  0 Multiplicity = 1

                         Standard orientation:
 ---------------------------------------------------------------------
 Center     Atomic      Atomic             Coordinates (Angstroms)
 Number     Number       Type             X           Y           Z
 ---------------------------------------------------------------------
      1          7           0       -0.417462    0.153193    0.287676
      2          7           0        0.420804   -0.134679   -0.565418
      3          6           0       -1.851274    0.159591   -0.048426
      4          6           0        1.856311   -0.133037   -0.239844
      5          8           0        2.521465   -1.137678   -0.224382
      6          8           0       -2.505143    1.171488   -0.084848
      7          8           0        2.273709    1.149699   -0.130937
      8          8           0       -2.285177   -1.119032   -0.132449
      9          6           0       -3.728008   -1.331527   -0.285696
     10          1           0       -3.796796   -2.427006   -0.244930
     11          1           0       -4.270493   -0.857869    0.544273
     12          1           0       -4.047556   -0.938902   -1.255998
     13          6           0        3.718820    1.391000   -0.081721
     14          1           0        3.756427    2.460764    0.166241
     15          1           0        4.184305    0.776230    0.700928
     16          1           0        4.145560    1.184922   -1.068210
     17          8           0       -5.265835    1.059898    0.898414
     18          1           0       -4.464369    1.469695    0.544481
     19          1           0       -5.522523    1.591892    1.653506
     20          8           0       -0.405927   -3.492847   -0.271687
     21          1           0       -0.837242   -4.071135   -0.904448
     22          1           0       -1.095652   -2.916010    0.071544
     23          8           0        0.465723    3.437022   -0.479206
     24          1           0        1.157048    2.847486   -0.799317
     25          1           0        0.883154    3.998299    0.177350
     26          8           0        5.210582   -1.135778    0.939699
     27          1           0        4.423125   -1.497888    0.510249
     28          1           0        5.411354   -1.728415    1.665811
 ---------------------------------------------------------------------

 SCF Done:  E(RPM6D3) = -0.576310437831     A.U. after    2 cycles

 The electronic state is 1-A.
 Alpha  occ. eigenvalues --   -1.33822  -1.23163  -1.22314  -1.17740  -1.17283
 Alpha  occ. eigenvalues --   -1.11169  -1.11113  -1.10850  -1.10792  -1.05388
 Alpha  occ. eigenvalues --   -0.97617  -0.92689  -0.84640  -0.77678  -0.72996
 Alpha  occ. eigenvalues --   -0.70126  -0.69582  -0.69476  -0.69056  -0.67703
 Alpha  occ. eigenvalues --   -0.66393  -0.65298  -0.64093  -0.61886  -0.57843
 Alpha  occ. eigenvalues --   -0.57532  -0.57129  -0.55482  -0.55148  -0.53370
 Alpha  occ. eigenvalues --   -0.53237  -0.53112  -0.53057  -0.50992  -0.50895
 Alpha  occ. eigenvalues --   -0.47309  -0.47093  -0.45615  -0.45548  -0.44914
 Alpha  occ. eigenvalues --   -0.44878  -0.44136  -0.44119  -0.39407
 Alpha virt. eigenvalues --   -0.07243  -0.03938  -0.02379  -0.00949   0.01682
 Alpha virt. eigenvalues --    0.04195   0.07810   0.08209   0.08935   0.12456
 Alpha virt. eigenvalues --    0.12717   0.12731   0.14955   0.15007   0.15153

 Mulliken charges:
               1
     1  N   -0.121843
     2  N   -0.123163
     3  C    0.679606
     4  C    0.681022
     5  O   -0.491181
     6  O   -0.492403
     7  O   -0.402921
     8  O   -0.401536
     9  C   -0.178661
    10  H    0.180762
    11  H    0.176830
    12  H    0.164043
    13  C   -0.180056
    14  H    0.181093
    15  H    0.176304
    16  H    0.164872
    17  O   -0.668750
    18  H    0.335590
    19  H    0.329701
    20  O   -0.665628
    21  H    0.332139
    22  H    0.330719
    23  O   -0.666368
    24  H    0.331620
    25  H    0.331573
    26  O   -0.669055
    27  H    0.335825
    28  H    0.329867
 Sum of Mulliken charges =   0.00000

 Dipole moment (field-independent basis, Debye):
    X=             -0.1276    Y=             -0.0712    Z=              1.3071  Tot=              1.3152
 N-N= 6.184143791290D+02 E-N=-1.123394560276D+03  KE=-5.142235205842D+01
  Exact polarizability: 160.677  -6.687 102.619   1.270   9.733  40.890
 Approx polarizability:  81.112  -7.138  67.446  -1.399   6.442  26.512
 D2PCM: C-PCM CHGder 2nd derivatives, FixD1E=F FixD2E=F DoIter=F DoCFld=F I1PDM=0
 Calling FoFJK, ICntrl=    100127 FMM=F ISym2X=0 I1Cent= 0 IOpClX= 0 NMat=1 NMatS=1 NMatT=0.
 Full mass-weighted force constant matrix:
 Low frequencies ---   -5.7628   -0.0365   -0.0279   -0.0191    3.7778   14.8705
 Low frequencies ---   17.1142   21.2405   23.5386
 Diagonal vibrational polarizability:
      613.4584579     864.6183560    1842.8442404

                      1                      2                      3
                      A                      A                      A
 Frequencies --     16.3731                20.4940                22.0087
 Red. masses --      5.7895                 4.9769                 5.2781
 Frc consts  --      0.0009                 0.0012                 0.0015
 IR Inten    --      0.1471                 2.0450                 2.0780

                      4                      5                      6
                      A                      A                      A
 Frequencies --     31.6802                37.5257                46.4044
 Red. masses --      7.5926                 5.9163                 5.5521
 Frc consts  --      0.0045                 0.0049                 0.0070
 IR Inten    --      0.7360                 2.2647                14.8274

                      7                      8                      9
                      A                      A                      A
 Frequencies --     56.0129                60.2934                64.4217
 Red. masses --      4.2018                 3.5373                 4.5554
 Frc consts  --      0.0078                 0.0076                 0.0111
 IR Inten    --      4.0560                32.3818                11.8832

                     10                     11                     12
                      A                      A                      A
 Frequencies --     76.6319                77.5932                82.0512
 Red. masses --      2.5298                 4.3324                 2.7487
 Frc consts  --      0.0088                 0.0154                 0.0109
 IR Inten    --      8.5816                 3.4889                24.6095

                     13                     14                     15
                      A                      A                      A
 Frequencies --     84.9526                92.9973                98.2052
 Red. masses --      3.3290                 4.5950                 3.3372
 Frc consts  --      0.0142                 0.0234                 0.0190
 IR Inten    --     20.6455                35.1153                 9.2281

                     16                     17                     18
                      A                      A                      A
 Frequencies --    100.1115               108.8451               113.7849
 Red. masses --      2.5917                 1.4855                 1.6403
 Frc consts  --      0.0153                 0.0104                 0.0125
 IR Inten    --     10.5098                25.0566               154.6157

                     19                     20                     21
                      A                      A                      A
 Frequencies --    124.2775               128.6288               137.1669
 Red. masses --      1.5532                 1.5204                 1.5381
 Frc consts  --      0.0141                 0.0148                 0.0171
 IR Inten    --    137.7777               139.3093                89.8463

                     22                     23                     24
                      A                      A                      A
 Frequencies --    146.3261               150.1244               157.5781
 Red. masses --      1.3525                 1.1556                 1.1463
 Frc consts  --      0.0171                 0.0153                 0.0168
 IR Inten    --     48.2132               116.0131               167.6940

                     25                     26                     27
                      A                      A                      A
 Frequencies --    169.8884               188.0612               192.2893
 Red. masses --      1.2075                 1.1821                 1.2419
 Frc consts  --      0.0205                 0.0246                 0.0271
 IR Inten    --     97.1874               155.7019               113.3169

                     28                     29                     30
                      A                      A                      A
 Frequencies --    206.4117               232.5501               245.2383
 Red. masses --      5.8484                 5.8150                 1.0379
 Frc consts  --      0.1468                 0.1853                 0.0368
 IR Inten    --     29.6365                 4.4485               154.0369

                     31                     32                     33
                      A                      A                      A
 Frequencies --    264.5703               285.8496               291.4526
 Red. masses --      2.7001                 1.2867                 1.2420
 Frc consts  --      0.1114                 0.0619                 0.0622
 IR Inten    --    105.0338                11.9071               363.2621

                     34                     35                     36
                      A                      A                      A
 Frequencies --    295.9436               310.5098               402.4077
 Red. masses --      1.1860                 1.9355                11.8712
 Frc consts  --      0.0612                 0.1100                 1.1326
 IR Inten    --    183.6182                45.8844                 0.4532

                     37                     38                     39
                      A                      A                      A
 Frequencies --    500.9550               514.8141               584.9711
 Red. masses --      9.5125                 9.9994                 7.0872
 Frc consts  --      1.4065                 1.5614                 1.4289
 IR Inten    --     33.0726                 0.1173                98.5138

                     40                     41                     42
                      A                      A                      A
 Frequencies --    663.2691               745.3900               921.0045
 Red. masses --     12.4536                 6.9137                 4.7392
 Frc consts  --      3.2279                 2.2632                 2.3685
 IR Inten    --    144.2733                 0.0381                 1.6998

                     43                     44                     45
                      A                      A                      A
 Frequencies --    928.6320              1044.3857              1053.8157
 Red. masses --      3.7370                 3.1580                 1.2547
 Frc consts  --      1.8987                 2.0295                 0.8209
 IR Inten    --    103.8076                 4.5378                10.9789

                     46                     47                     48
                      A                      A                      A
 Frequencies --   1059.5511              1067.7943              1102.3004
 Red. masses --      1.8594                 6.6578                 1.6666
 Frc consts  --      1.2299                 4.4725                 1.1931
 IR Inten    --     14.1261               216.9904                 3.2991

                     49                     50                     51
                      A                      A                      A
 Frequencies --   1103.4924              1186.3399              1196.8499
 Red. masses --      1.8571                 5.4758                 5.3742
 Frc consts  --      1.3324                 4.5406                 4.5357
 IR Inten    --    238.2769                18.4498              1046.7160

                     52                     53                     54
                      A                      A                      A
 Frequencies --   1211.6484              1211.8545              1226.6101
 Red. masses --      1.0701                 1.0623                 1.0667
 Frc consts  --      0.9256                 0.9192                 0.9456
 IR Inten    --     94.5223                29.2094                67.0166

                     55                     56                     57
                      A                      A                      A
 Frequencies --   1229.4811              1319.0359              1319.1865
 Red. masses --      1.0667                 1.2092                 1.2099
 Frc consts  --      0.9501                 1.2395                 1.2405
 IR Inten    --     65.1932               202.7181                15.1478

                     58                     59                     60
                      A                      A                      A
 Frequencies --   1381.1586              1383.5217              1384.4859
 Red. masses --      1.1120                 1.1096                 1.1094
 Frc consts  --      1.2498                 1.2513                 1.2529
 IR Inten    --    136.7200               156.5932               121.9256

                     61                     62                     63
                      A                      A                      A
 Frequencies --   1386.0187              1771.9585              1778.6906
 Red. masses --      1.1108                12.7346                12.7971
 Frc consts  --      1.2573                23.5583                23.8540
 IR Inten    --    156.2868              2154.3834                52.0824

                     64                     65                     66
                      A                      A                      A
 Frequencies --   1891.3875              2464.2091              2464.6071
 Red. masses --     14.0025                 1.0832                 1.0828
 Frc consts  --     29.5132                 3.8752                 3.8751
 IR Inten    --      0.0163               578.2911               465.1163

                     67                     68                     69
                      A                      A                      A
 Frequencies --   2473.4487              2475.7167              2593.7130
 Red. masses --      1.0835                 1.0835                 1.0218
 Frc consts  --      3.9055                 3.9128                 4.0502
 IR Inten    --    525.7488               370.3433                85.2054

                     70                     71                     72
                      A                      A                      A
 Frequencies --   2594.6102              2603.2136              2603.8637
 Red. masses --      1.0219                 1.0194                 1.0193
 Frc consts  --      4.0531                 4.0702                 4.0717
 IR Inten    --     76.0839                71.6714                51.0742

                     73                     74                     75
                      A                      A                      A
 Frequencies --   2639.8901              2641.1456              2668.5535
 Red. masses --      1.0906                 1.0908                 1.0931
 Frc consts  --      4.4780                 4.4831                 4.5861
 IR Inten    --    140.7333               140.3124               134.7262

                     76                     77                     78
                      A                      A                      A
 Frequencies --   2669.0941              2740.2097              2741.0742
 Red. masses --      1.0931                 1.0233                 1.0232
 Frc consts  --      4.5881                 4.5270                 4.5297
 IR Inten    --    131.6859               106.6819                31.1979

 - Thermochemistry -
 -------------------
 Temperature   298.150 Kelvin.  Pressure   1.00000 Atm.
 Atom     1 has atomic number  7 and mass  14.00307

 Molecular mass:   218.07502 amu.
 Principal axes and moments of inertia in atomic units:
                           1         2         3
     Eigenvalues --  2425.306156882.212478936.21708
           X            0.99992   0.01282   0.00137
           Y           -0.01282   0.99991   0.00467
           Z           -0.00131  -0.00469   0.99999
 This molecule is an asymmetric top.
 Rotational symmetry number  1.
 Warning -- assumption of classical behavior for rotation
           may cause significant error
 Rotational temperatures (Kelvin)      0.03571     0.01259     0.00969
 Rotational constants (GHZ):           0.74413     0.26223     0.20196
 Zero-point vibrational energy     440594.3 (Joules/Mol)
                                  105.30456 (Kcal/Mol)
 Warning -- explicit consideration of  39 degrees of freedom as
           vibrations may cause significant error
 Vibrational temperatures:     23.56    29.49    31.67    45.58    53.99
          (Kelvin)             66.77    80.59    86.75    92.69   110.26
                              111.64   118.05   122.23   133.80   141.30
                              144.04   156.60   163.71   178.81   185.07
                              197.35   210.53   216.00   226.72   244.43
                              270.58   276.66   296.98   334.59   352.84
                              380.66   411.27   419.33   425.80   446.75
                              578.97   720.76   740.70   841.64   954.30
                             1072.45  1325.12  1336.09  1502.64  1516.20
                             1524.46  1536.32  1585.96  1587.68  1706.88
                             1722.00  1743.29  1743.59  1764.82  1768.95
                             1897.80  1898.01  1987.18  1990.58  1991.96
                             1994.17  2549.45  2559.14  2721.28  3545.44
                             3546.02  3558.74  3562.00  3731.77  3733.06
                             3745.44  3746.37  3798.21  3800.01  3839.45
                             3840.23  3942.55  3943.79

 Zero-point correction=                           0.167814 (Hartree/Particle)
 Thermal correction to Energy=                    0.196105
 Thermal correction to Enthalpy=                  0.197049
 Thermal correction to Gibbs Free Energy=         0.102673
 Sum of electronic and zero-point Energies=             -0.408497
 Sum of electronic and thermal Energies=                -0.380205
 Sum of electronic and thermal Enthalpies=              -0.379261
 Sum of electronic and thermal Free Energies=           -0.473638

                     E (Thermal)             CV                S
                      KCal/Mol        Cal/Mol-Kelvin    Cal/Mol-Kelvin
 Total                  123.058             83.693            198.632
 Electronic               0.000              0.000              0.000
 Translational            0.889              2.981             42.042
 Rotational               0.889              2.981             33.367
 Vibrational            121.280             77.732            123.224
 Vibration     1          0.593              1.986              7.032
 Vibration     2          0.593              1.986              6.586
 Vibration     3          0.593              1.985              6.444
 Vibration     4          0.594              1.983              5.721
 Vibration     5          0.594              1.982              5.386
 Vibration     6          0.595              1.979              4.965
 Vibration     7          0.596              1.975              4.593
 Vibration     8          0.597              1.973              4.448
 Vibration     9          0.597              1.971              4.317
 Vibration    10          0.599              1.965              3.975
 Vibration    11          0.599              1.964              3.951
 Vibration    12          0.600              1.961              3.841
 Vibration    13          0.601              1.960              3.773
 Vibration    14          0.602              1.954              3.596
 Vibration    15          0.604              1.950              3.490
 Vibration    16          0.604              1.949              3.452
 Vibration    17          0.606              1.942              3.289
 Vibration    18          0.607              1.938              3.203
 Vibration    19          0.610              1.929              3.033
 Vibration    20          0.611              1.925              2.966
 Vibration    21          0.614              1.916              2.843
 Vibration    22          0.617              1.907              2.719
 Vibration    23          0.618              1.903              2.671
 Vibration    24          0.621              1.894              2.579
 Vibration    25          0.625              1.880              2.437
 Vibration    26          0.633              1.856              2.247
 Vibration    27          0.634              1.851              2.206
 Vibration    28          0.641              1.831              2.075
 Vibration    29          0.653              1.791              1.859
 Vibration    30          0.660              1.771              1.765
 Vibration    31          0.671              1.738              1.631
 Vibration    32          0.684              1.700              1.498
 Vibration    33          0.687              1.690              1.466
 Vibration    34          0.690              1.681              1.440
 Vibration    35          0.699              1.654              1.360
 Vibration    36          0.768              1.465              0.954
 Vibration    37          0.856              1.248              0.656
 Vibration    38          0.870              1.217              0.622
 Vibration    39          0.942              1.064              0.476

 Normal termination of Gaussian 09 at Tue Sep  8 22:56:10 2020.
