 Gaussian 09, Revision D.01,
 Gaussian 09:  ES64L-G09RevD.01 24-Apr-2013

 ----------------------------------------------------------------------
 # freq pm6 scrf=(cpcm,solvent=water) geom=connectivity empiricaldisper
 sion=gd3
 ----------------------------------------------------------------------

 -------------------
 Title Card Required
 -------------------
 Symbolic Z-matrix:
 Charge =  0 Multiplicity = 1

                         Standard orientation:
 ---------------------------------------------------------------------
 Center     Atomic      Atomic             Coordinates (Angstroms)
 Number     Number       Type             X           Y           Z
 ---------------------------------------------------------------------
      1          6           0       -0.417567    0.562761    1.156411
      2          6           0       -0.850121    1.839289    0.288515
      3          6           0        1.438158    2.132735    0.740803
      4          6           0        1.029707    0.902743    1.571650
      5          1           0       -1.046004   -0.073494    1.782195
      6          1           0        1.695853    0.169918    1.989755
      7          6           0        0.430224    2.344759   -0.394159
      8          1           0        0.340114    3.406850   -0.684865
      9          1           0        0.688222    1.791899   -1.312116
     10          6           0       -0.775855    2.180669    1.722417
     11          1           0       -1.589951    2.391828    2.394938
     12          6           0        0.698794    2.319478    2.081713
     13          1           0        1.056341    2.844575    2.946904
     14          1           0       -1.789363    1.814154   -0.279514
     15          1           0        2.470968    2.422994    0.596778
     16          7           0        0.535846   -0.698698   -1.046631
     17          7           0       -0.259386   -0.864535   -0.050076
     18          6           0        1.948208   -0.670835   -0.826204
     19          6           0       -1.655451   -1.137992   -0.472985
     20          8           0       -2.219901   -2.147705   -0.115391
     21          8           0        2.723685   -0.100907   -1.566518
     22          8           0       -2.192759   -0.134414   -1.195835
     23          8           0        2.353834   -1.438444    0.239183
     24          6           0        3.785677   -1.516300    0.507602
     25          1           0        3.821039   -2.092026    1.441645
     26          1           0        4.279368   -2.046101   -0.312671
     27          1           0        4.193333   -0.509768    0.645799
     28          6           0       -3.602488   -0.226609   -1.578301
     29          1           0       -3.649273   -0.743188   -2.540749
     30          1           0       -4.192430   -0.742392   -0.810707
     31          1           0       -3.886333    0.837169   -1.655766
     32          8           0       -4.617556   -2.521412    0.532441
     33          1           0       -3.954317   -2.143391    1.120390
     34          1           0       -4.118978   -3.016142   -0.129468
     35          8           0       -3.658895    2.787264   -0.701510
     36          1           0       -4.225338    2.911902    0.063741
     37          1           0       -3.757731    3.578363   -1.236037
     38          8           0        1.064758   -3.211715    1.551479
     39          1           0        1.613058   -3.300154    0.763963
     40          1           0        0.925302   -2.263605    1.660526
     41          8           0        5.049471    0.784444   -1.755843
     42          1           0        4.315019    1.178206   -1.271493
     43          1           0        4.679051    0.003959   -2.185111
 ---------------------------------------------------------------------

 SCF Done:  E(RPM6D3) = -0.426249280006     A.U. after   19 cycles

 The electronic state is 1-A.
 Alpha  occ. eigenvalues --   -1.27724  -1.23646  -1.21438  -1.20043  -1.16369
 Alpha  occ. eigenvalues --   -1.14303  -1.11080  -1.10642  -1.10322  -1.10281
 Alpha  occ. eigenvalues --   -1.04006  -0.99105  -0.95914  -0.95530  -0.92180
 Alpha  occ. eigenvalues --   -0.86204  -0.82469  -0.76775  -0.75209  -0.73231
 Alpha  occ. eigenvalues --   -0.72364  -0.70116  -0.69329  -0.69097  -0.68670
 Alpha  occ. eigenvalues --   -0.68463  -0.68021  -0.65572  -0.64422  -0.63869
 Alpha  occ. eigenvalues --   -0.62768  -0.61504  -0.58685  -0.57487  -0.56645
 Alpha  occ. eigenvalues --   -0.55657  -0.55124  -0.54681  -0.53632  -0.53331
 Alpha  occ. eigenvalues --   -0.52942  -0.52371  -0.52303  -0.52104  -0.51035
 Alpha  occ. eigenvalues --   -0.49848  -0.49649  -0.48937  -0.48034  -0.46211
 Alpha  occ. eigenvalues --   -0.45702  -0.45131  -0.44561  -0.44405  -0.44255
 Alpha  occ. eigenvalues --   -0.44056  -0.43911  -0.43628  -0.43498  -0.42106
 Alpha  occ. eigenvalues --   -0.39006  -0.33227
 Alpha virt. eigenvalues --   -0.07763  -0.01279  -0.00680   0.00801   0.02239
 Alpha virt. eigenvalues --    0.03859   0.05799   0.07228   0.07658   0.09026
 Alpha virt. eigenvalues --    0.09283   0.09805   0.10557   0.10674   0.11216

 Mulliken charges:
               1
     1  C   -0.274966
     2  C   -0.049235
     3  C   -0.118229
     4  C   -0.150048
     5  H    0.198036
     6  H    0.178491
     7  C   -0.278086
     8  H    0.169685
     9  H    0.172034
    10  C   -0.001667
    11  H    0.179392
    12  C   -0.214306
    13  H    0.185697
    14  H    0.205607
    15  H    0.169935
    16  N   -0.404875
    17  N   -0.049844
    18  C    0.735391
    19  C    0.689609
    20  O   -0.539936
    21  O   -0.571270
    22  O   -0.396607
    23  O   -0.463548
    24  C   -0.175110
    25  H    0.174211
    26  H    0.157146
    27  H    0.158363
    28  C   -0.193989
    29  H    0.159947
    30  H    0.169027
    31  H    0.190508
    32  O   -0.670570
    33  H    0.332281
    34  H    0.335306
    35  O   -0.655295
    36  H    0.330342
    37  H    0.329676
    38  O   -0.676846
    39  H    0.333663
    40  H    0.336845
    41  O   -0.675804
    42  H    0.333226
    43  H    0.335812
 Sum of Mulliken charges =   0.00000

 Dipole moment (field-independent basis, Debye):
    X=             -3.8988    Y=              8.9980    Z=              3.8412  Tot=             10.5319
 N-N= 1.149900969302D+03 E-N=-2.133706180559D+03  KE=-8.095629739231D+01
  Exact polarizability: 215.536 -36.418 260.647 -43.700  79.756 213.214
 Approx polarizability: 114.480  -7.874 122.026 -19.265  15.015 112.356
 D2PCM: C-PCM CHGder 2nd derivatives, FixD1E=F FixD2E=F DoIter=F DoCFld=F I1PDM=0
 Calling FoFJK, ICntrl=    100127 FMM=F ISym2X=0 I1Cent= 0 IOpClX= 0 NMat=1 NMatS=1 NMatT=0.
 Full mass-weighted force constant matrix:
 Low frequencies --- -915.2447  -11.9657   -0.1906   -0.0740   -0.0238    5.4122
 Low frequencies ---    6.9805   16.4460   21.3556
 ******    1 imaginary frequencies (negative Signs) ******
 Diagonal vibrational polarizability:

                      1                      2                      3
                      A                      A                      A
 Frequencies --   -915.2446                14.9902                21.1006
 Red. masses --      8.8150                 6.2889                 6.3796
 Frc consts  --      4.3506                 0.0008                 0.0017
 IR Inten    --  10620.9829                 0.3104                 2.4162

                      4                      5                      6
                      A                      A                      A
 Frequencies --     23.5528                29.3841                31.7398
 Red. masses --      6.7628                 6.0283                 4.6788
 Frc consts  --      0.0022                 0.0031                 0.0028
 IR Inten    --      3.8752                 3.7254                 2.2036

                      7                      8                      9
                      A                      A                      A
 Frequencies --     37.3905                46.9191                57.1459
 Red. masses --      6.2092                 6.4695                 3.5575
 Frc consts  --      0.0051                 0.0084                 0.0068
 IR Inten    --      4.2476                 3.5003                 2.0819

                     10                     11                     12
                      A                      A                      A
 Frequencies --     61.8528                67.0697                79.2396
 Red. masses --      4.9186                 3.9390                 1.6707
 Frc consts  --      0.0111                 0.0104                 0.0062
 IR Inten    --      3.6265                 5.1644                 1.1894

                     13                     14                     15
                      A                      A                      A
 Frequencies --     83.5916                86.1364                95.2265
 Red. masses --      2.9612                 3.0596                 3.8607
 Frc consts  --      0.0122                 0.0134                 0.0206
 IR Inten    --     14.6856                 6.2137                13.6097

                     16                     17                     18
                      A                      A                      A
 Frequencies --     97.6046               107.8850               124.0773
 Red. masses --      2.2326                 2.5262                 1.5315
 Frc consts  --      0.0125                 0.0173                 0.0139
 IR Inten    --      5.5871                39.8250                77.2445

                     19                     20                     21
                      A                      A                      A
 Frequencies --    131.5232               132.7257               143.5749
 Red. masses --      2.1675                 2.7002                 1.8797
 Frc consts  --      0.0221                 0.0280                 0.0228
 IR Inten    --     59.1198               104.2288                26.9143

                     22                     23                     24
                      A                      A                      A
 Frequencies --    146.3988               147.8256               160.3661
 Red. masses --      2.1289                 4.2274                 4.5276
 Frc consts  --      0.0269                 0.0544                 0.0686
 IR Inten    --     34.1974                 4.6904                 4.4636

                     25                     26                     27
                      A                      A                      A
 Frequencies --    169.3296               180.5725               188.2582
 Red. masses --      4.3568                 3.6235                 1.5515
 Frc consts  --      0.0736                 0.0696                 0.0324
 IR Inten    --      3.0164                 9.3301                15.7877

                     28                     29                     30
                      A                      A                      A
 Frequencies --    189.3202               193.7289               202.4821
 Red. masses --      1.2132                 1.5442                 2.7843
 Frc consts  --      0.0256                 0.0341                 0.0673
 IR Inten    --     59.5407                33.4405                44.0457

                     31                     32                     33
                      A                      A                      A
 Frequencies --    205.8438               217.2889               264.7000
 Red. masses --      1.4316                 1.1682                 3.5225
 Frc consts  --      0.0357                 0.0325                 0.1454
 IR Inten    --     65.9113                 6.2665                18.7114

                     34                     35                     36
                      A                      A                      A
 Frequencies --    281.1405               283.3471               298.4229
 Red. masses --      1.0853                 1.1546                 5.6527
 Frc consts  --      0.0505                 0.0546                 0.2966
 IR Inten    --    157.0406                86.5411                11.9678

                     37                     38                     39
                      A                      A                      A
 Frequencies --    304.3973               310.3641               331.7140
 Red. masses --      2.9089                 1.0550                 1.0928
 Frc consts  --      0.1588                 0.0599                 0.0708
 IR Inten    --     48.8877                85.1382               542.6389

                     40                     41                     42
                      A                      A                      A
 Frequencies --    342.5229               352.1466               360.2385
 Red. masses --      1.1403                 6.3704                 1.0994
 Frc consts  --      0.0788                 0.4654                 0.0841
 IR Inten    --    272.8524                28.1860               254.0661

                     43                     44                     45
                      A                      A                      A
 Frequencies --    413.8827               462.9174               491.8918
 Red. masses --      1.9183                10.2415                 3.1370
 Frc consts  --      0.1936                 1.2931                 0.4472
 IR Inten    --      6.1973                16.4119                 7.7015

                     46                     47                     48
                      A                      A                      A
 Frequencies --    534.1055               587.0119               604.5468
 Red. masses --      5.7331                 9.9259                 7.2129
 Frc consts  --      0.9636                 2.0152                 1.5532
 IR Inten    --      9.5214                21.6765                71.8875

                     49                     50                     51
                      A                      A                      A
 Frequencies --    636.6975               670.5408               676.1354
 Red. masses --      4.7380                 6.8882                 8.7004
 Frc consts  --      1.1317                 1.8248                 2.3435
 IR Inten    --     24.7614                14.7541                52.4808

                     52                     53                     54
                      A                      A                      A
 Frequencies --    719.4486               732.8507               748.8338
 Red. masses --      5.9820                 7.3872                 5.7922
 Frc consts  --      1.8243                 2.3376                 1.9136
 IR Inten    --     96.6884                41.1202                99.0560

                     55                     56                     57
                      A                      A                      A
 Frequencies --    867.6197               871.6227               884.4383
 Red. masses --      2.1080                 1.4521                 1.5703
 Frc consts  --      0.9349                 0.6500                 0.7237
 IR Inten    --      3.2348                36.7407               103.8481

                     58                     59                     60
                      A                      A                      A
 Frequencies --    911.5775               916.2298               935.8243
 Red. masses --      2.7752                 1.5757                 3.6248
 Frc consts  --      1.3587                 0.7793                 1.8703
 IR Inten    --     22.8823                52.5363                92.2959

                     61                     62                     63
                      A                      A                      A
 Frequencies --    943.9573               988.0741              1003.7165
 Red. masses --      2.0267                 1.5836                 1.2623
 Frc consts  --      1.0640                 0.9109                 0.7493
 IR Inten    --     37.2288                 7.7893                 8.2632

                     64                     65                     66
                      A                      A                      A
 Frequencies --   1013.0310              1024.1643              1035.5865
 Red. masses --      1.4213                 1.3473                 1.4667
 Frc consts  --      0.8594                 0.8326                 0.9268
 IR Inten    --      4.1943                18.7771                37.8168

                     67                     68                     69
                      A                      A                      A
 Frequencies --   1048.9083              1061.4806              1063.3881
 Red. masses --      1.3894                 1.2548                 1.3738
 Frc consts  --      0.9007                 0.8330                 0.9153
 IR Inten    --     24.5813                 9.3154                21.5511

                     70                     71                     72
                      A                      A                      A
 Frequencies --   1077.8046              1082.2182              1085.3220
 Red. masses --      2.4020                 1.6904                 1.6676
 Frc consts  --      1.6440                 1.1664                 1.1573
 IR Inten    --     56.7947               174.0097               176.0070

                     73                     74                     75
                      A                      A                      A
 Frequencies --   1086.4228              1104.7760              1110.3288
 Red. masses --      2.4667                 1.6532                 1.0617
 Frc consts  --      1.7154                 1.1889                 0.7711
 IR Inten    --     61.5264                24.0177                13.9998

                     76                     77                     78
                      A                      A                      A
 Frequencies --   1112.9431              1129.3495              1161.3429
 Red. masses --      1.7600                 1.5057                 2.6321
 Frc consts  --      1.2844                 1.1315                 2.0916
 IR Inten    --     59.2723               131.4432                30.1525

                     79                     80                     81
                      A                      A                      A
 Frequencies --   1165.7069              1191.6239              1203.5517
 Red. masses --      1.5546                 1.9601                 2.4449
 Frc consts  --      1.2446                 1.6399                 2.0866
 IR Inten    --     17.0357                 3.8382                18.7748

                     82                     83                     84
                      A                      A                      A
 Frequencies --   1213.5255              1219.0979              1219.3918
 Red. masses --      1.1120                 1.1817                 1.1109
 Frc consts  --      0.9648                 1.0347                 0.9732
 IR Inten    --    108.7044               122.2002                 4.8465

                     85                     86                     87
                      A                      A                      A
 Frequencies --   1225.2477              1234.5816              1239.5265
 Red. masses --      3.0751                 1.1371                 1.9532
 Frc consts  --      2.7199                 1.0211                 1.7681
 IR Inten    --    781.8924               182.0520                 8.1651

                     88                     89                     90
                      A                      A                      A
 Frequencies --   1241.7282              1258.2857              1276.9706
 Red. masses --      2.1864                 2.5130                 1.1658
 Frc consts  --      1.9863                 2.3443                 1.1201
 IR Inten    --    132.9282                28.9832                49.2955

                     91                     92                     93
                      A                      A                      A
 Frequencies --   1322.9074              1328.0829              1369.2395
 Red. masses --      1.1829                 1.3040                 5.0365
 Frc consts  --      1.2198                 1.3551                 5.5633
 IR Inten    --    133.4413                99.5151               194.7850

                     94                     95                     96
                      A                      A                      A
 Frequencies --   1385.5058              1413.4278              1418.7119
 Red. masses --      1.1123                 1.1103                 1.1170
 Frc consts  --      1.2580                 1.3069                 1.3247
 IR Inten    --    130.3556               295.8925               544.2272

                     97                     98                     99
                      A                      A                      A
 Frequencies --   1421.8788              1426.7829              1549.7611
 Red. masses --      5.8590                 1.1287                 9.4065
 Frc consts  --      6.9791                 1.3538                13.3109
 IR Inten    --      2.7901               285.6568              2659.0351

                    100                    101                    102
                      A                      A                      A
 Frequencies --   1751.9040              1762.7204              2466.6389
 Red. masses --     12.1315                12.4272                 1.0832
 Frc consts  --     21.9374                22.7504                 3.8830
 IR Inten    --   1588.0023               332.0937               489.6139

                    103                    104                    105
                      A                      A                      A
 Frequencies --   2471.1310              2473.0579              2489.0454
 Red. masses --      1.0827                 1.0830                 1.0827
 Frc consts  --      3.8953                 3.9026                 3.9522
 IR Inten    --    395.6534               376.6735               379.1587

                    106                    107                    108
                      A                      A                      A
 Frequencies --   2610.9045              2615.8728              2617.2290
 Red. masses --      1.0250                 1.0194                 1.0292
 Frc consts  --      4.1167                 4.1100                 4.1539
 IR Inten    --    157.6671                74.9744                30.3943

                    109                    110                    111
                      A                      A                      A
 Frequencies --   2626.5468              2635.3280              2657.0381
 Red. masses --      1.0195                 1.0783                 1.0884
 Frc consts  --      4.1439                 4.4123                 4.5274
 IR Inten    --     61.9876               134.4460               122.9902

                    112                    113                    114
                      A                      A                      A
 Frequencies --   2667.6014              2668.6277              2672.4809
 Red. masses --      1.0859                 1.0924                 1.0922
 Frc consts  --      4.5529                 4.5838                 4.5962
 IR Inten    --    123.9875               101.0749               119.4540

                    115                    116                    117
                      A                      A                      A
 Frequencies --   2677.0128              2696.4219              2732.9294
 Red. masses --      1.0749                 1.0740                 1.0253
 Frc consts  --      4.5388                 4.6007                 4.5118
 IR Inten    --    263.8593               227.9392                65.2648

                    118                    119                    120
                      A                      A                      A
 Frequencies --   2739.6080              2748.2978              2750.8383
 Red. masses --      1.0760                 1.0503                 1.0234
 Frc consts  --      4.7580                 4.6741                 4.5628
 IR Inten    --    605.0724               146.2455                24.1769

                    121                    122                    123
                      A                      A                      A
 Frequencies --   2759.3306              2765.6110              2778.2040
 Red. masses --      1.0733                 1.0746                 1.0808
 Frc consts  --      4.8148                 4.8427                 4.9152
 IR Inten    --    104.9328               107.0691               350.1532

 - Thermochemistry -
 -------------------
 Temperature   298.150 Kelvin.  Pressure   1.00000 Atm.
 Atom     1 has atomic number  6 and mass  12.00000

 Molecular mass:   310.13762 amu.
 Principal axes and moments of inertia in atomic units:
                           1         2         3
     Eigenvalues --  4952.743488779.03059**********
           X            0.99981  -0.01729   0.00932
           Y            0.01738   0.99981  -0.00930
           Z           -0.00915   0.00946   0.99991
 This molecule is an asymmetric top.
 Rotational symmetry number  1.
 Warning -- assumption of classical behavior for rotation
           may cause significant error
 Rotational temperatures (Kelvin)      0.01749     0.00987     0.00804
 Rotational constants (GHZ):           0.36439     0.20557     0.16758
    1 imaginary frequencies ignored.
 Zero-point vibrational energy     762990.5 (Joules/Mol)
                                  182.35910 (Kcal/Mol)
 Warning -- explicit consideration of  47 degrees of freedom as
           vibrations may cause significant error
 Vibrational temperatures:     21.57    30.36    33.89    42.28    45.67
          (Kelvin)             53.80    67.51    82.22    88.99    96.50
                              114.01   120.27   123.93   137.01   140.43
                              155.22   178.52   189.23   190.96   206.57
                              210.63   212.69   230.73   243.63   259.80
                              270.86   272.39   278.73   291.33   296.16
                              312.63   380.84   404.50   407.67   429.36
                              437.96   446.54   477.26   492.81   506.66
                              518.30   595.48   666.03   707.72   768.46
                              844.58   869.81   916.06   964.76   972.81
                             1035.12  1054.41  1077.40  1248.31  1254.07
                             1272.51  1311.56  1318.25  1346.44  1358.14
                             1421.62  1444.12  1457.52  1473.54  1489.98
                             1509.14  1527.23  1529.98  1550.72  1557.07
                             1561.53  1563.12  1589.52  1597.51  1601.27
                             1624.88  1670.91  1677.19  1714.48  1731.64
                             1745.99  1754.01  1754.43  1762.86  1776.29
                             1783.40  1786.57  1810.39  1837.27  1903.37
                             1910.81  1970.03  1993.43  2033.60  2041.21
                             2045.76  2052.82  2229.76  2520.60  2536.16
                             3548.94  3555.40  3558.17  3581.18  3756.50
                             3763.65  3765.60  3779.01  3791.64  3822.88
                             3838.08  3839.56  3845.10  3851.62  3879.54
                             3932.07  3941.68  3954.18  3957.84  3970.06
                             3979.09  3997.21

 Zero-point correction=                           0.290608 (Hartree/Particle)
 Thermal correction to Energy=                    0.322882
 Thermal correction to Enthalpy=                  0.323826
 Thermal correction to Gibbs Free Energy=         0.222209
 Sum of electronic and zero-point Energies=             -0.135642
 Sum of electronic and thermal Energies=                -0.103368
 Sum of electronic and thermal Enthalpies=              -0.102423
 Sum of electronic and thermal Free Energies=           -0.204041

                     E (Thermal)             CV                S
                      KCal/Mol        Cal/Mol-Kelvin    Cal/Mol-Kelvin
 Total                  202.611            106.496            213.872
 Electronic               0.000              0.000              0.000
 Translational            0.889              2.981             43.092
 Rotational               0.889              2.981             34.503
 Vibrational            200.834            100.534            136.276
 Vibration     1          0.593              1.986              7.207
 Vibration     2          0.593              1.985              6.528
 Vibration     3          0.593              1.985              6.310
 Vibration     4          0.593              1.984              5.871
 Vibration     5          0.594              1.983              5.718
 Vibration     6          0.594              1.982              5.393
 Vibration     7          0.595              1.979              4.943
 Vibration     8          0.596              1.975              4.553
 Vibration     9          0.597              1.973              4.397
 Vibration    10          0.598              1.970              4.238
 Vibration    11          0.600              1.963              3.910
 Vibration    12          0.600              1.960              3.805
 Vibration    13          0.601              1.959              3.746
 Vibration    14          0.603              1.953              3.550
 Vibration    15          0.603              1.951              3.502
 Vibration    16          0.606              1.943              3.307
 Vibration    17          0.610              1.929              3.036
 Vibration    18          0.612              1.922              2.924
 Vibration    19          0.613              1.921              2.906
 Vibration    20          0.616              1.910              2.756
 Vibration    21          0.617              1.907              2.719
 Vibration    22          0.617              1.905              2.700
 Vibration    23          0.622              1.891              2.545
 Vibration    24          0.625              1.880              2.443
 Vibration    25          0.630              1.866              2.322
 Vibration    26          0.633              1.856              2.245
 Vibration    27          0.633              1.855              2.234
 Vibration    28          0.635              1.849              2.192
 Vibration    29          0.639              1.836              2.110
 Vibration    30          0.640              1.832              2.080
 Vibration    31          0.646              1.815              1.982
 Vibration    32          0.671              1.738              1.631
 Vibration    33          0.681              1.709              1.527
 Vibration    34          0.682              1.705              1.513
 Vibration    35          0.692              1.677              1.426
 Vibration    36          0.695              1.665              1.393
 Vibration    37          0.699              1.654              1.360
 Vibration    38          0.714              1.612              1.252
 Vibration    39          0.722              1.590              1.200
 Vibration    40          0.729              1.571              1.157
 Vibration    41          0.735              1.554              1.121
 Vibration    42          0.777              1.440              0.913
 Vibration    43          0.821              1.332              0.758
 Vibration    44          0.848              1.268              0.679
 Vibration    45          0.889              1.175              0.578
 Vibration    46          0.944              1.059              0.473
 Vibration    47          0.963              1.022              0.442

 Normal termination of Gaussian 09 at Wed Sep 16 19:14:50 2020.
