 Gaussian 09, Revision D.01,
 Gaussian 09:  ES64L-G09RevD.01 24-Apr-2013

 ------------------------------------------------------------------
 # opt freq pm6 scrf=(cpcm,solvent=toluene) empiricaldispersion=gd3
 ------------------------------------------------------------------

 -------------------
 Title Card Required
 -------------------
 Symbolic Z-matrix:
 Charge =  0 Multiplicity = 1

 SCF Done:  E(RPM6D3) = -0.303313956955     A.U. after   15 cycles
 SCF Done:  E(RPM6D3) = -0.303305562546     A.U. after   11 cycles
 SCF Done:  E(RPM6D3) = -0.303328577138     A.U. after   11 cycles
 SCF Done:  E(RPM6D3) = -0.303335036326     A.U. after   10 cycles
 SCF Done:  E(RPM6D3) = -0.303336401864     A.U. after   10 cycles
 SCF Done:  E(RPM6D3) = -0.303337321228     A.U. after    9 cycles
 SCF Done:  E(RPM6D3) = -0.303337461117     A.U. after    9 cycles
 SCF Done:  E(RPM6D3) = -0.303337568265     A.U. after    9 cycles
 SCF Done:  E(RPM6D3) = -0.303337587587     A.U. after    8 cycles
 SCF Done:  E(RPM6D3) = -0.303337599887     A.U. after    8 cycles
 Optimization completed.
    -- Stationary point found.
 Normal termination of Gaussian 09 at Thu Jul 23 01:55:55 2020.

 -------------------------------------------------------------
 #N Geom=AllCheck Guess=TCheck SCRF=Check GenChk RPM6/ZDO Freq
 -------------------------------------------------------------

 Structure from the checkpoint file:  "cyclohexene_pm6_cpcmtoluene_2.chk"
 -------------------
 Title Card Required
 -------------------
 Charge =  0 Multiplicity = 1

                         Standard orientation:
 ---------------------------------------------------------------------
 Center     Atomic      Atomic             Coordinates (Angstroms)
 Number     Number       Type             X           Y           Z
 ---------------------------------------------------------------------
      1          6           0       -2.883796    0.254338   -0.212888
      2          6           0       -1.554364    0.845080   -0.699824
      3          6           0       -0.564971   -0.350597   -0.747927
      4          6           0       -1.351875   -1.558913   -0.219534
      5          1           0       -1.711060    1.228208   -1.740558
      6          1           0       -0.307694   -0.564925   -1.818273
      7          6           0       -3.740865   -2.028939    0.553190
      8          1           0       -3.740361   -2.040331    1.657517
      9          1           0       -4.734095   -1.690369    0.208559
     10          1           0       -3.577503   -3.060867    0.194531
     11          7           0       -2.686213   -1.133446    0.037597
     12          8           0       -0.963595   -2.690337   -0.053308
     13          8           0       -3.941955    0.818439   -0.061842
     14          6           0        0.739778   -0.194886    0.060570
     15          1           0        1.113066   -1.225612    0.320288
     16          6           0       -1.163844    2.037359    0.209955
     17          1           0       -2.118184    2.503241    0.581880
     18          6           0       -0.349992    1.592816    1.396942
     19          1           0       -0.507941    2.163652    2.310735
     20          6           0        0.518099    0.581574    1.329688
     21          1           0        1.123695    0.269206    2.178524
     22          6           0       -0.401478    3.108484   -0.577413
     23          1           0       -0.990828    3.495673   -1.415930
     24          1           0       -0.147333    3.961923    0.063819
     25          1           0        0.547383    2.721416   -0.985073
     26          6           0        1.814672    0.484562   -0.808288
     27          1           0        1.963403   -0.030055   -1.773480
     28          1           0        1.611867    1.568068   -0.968669
     29          6           0        3.877408   -0.599668   -0.099585
     30          6           0        5.083807   -0.340576    0.724175
     31          1           0        5.160793   -1.066595    1.551615
     32          1           0        6.003851   -0.441204    0.123610
     33          1           0        5.090382    0.667853    1.170319
     34          8           0        3.567219   -1.589506   -0.723619
     35          8           0        3.074405    0.522784   -0.083351
 ---------------------------------------------------------------------

 SCF Done:  E(RPM6D3) = -0.303337599885     A.U. after    2 cycles

 The electronic state is 1-A.
 Alpha  occ. eigenvalues --   -1.23343  -1.19435  -1.18877  -1.15737  -1.13153
 Alpha  occ. eigenvalues --   -1.11141  -1.03533  -1.02137  -0.99838  -0.94924
 Alpha  occ. eigenvalues --   -0.90296  -0.89094  -0.83967  -0.79915  -0.79184
 Alpha  occ. eigenvalues --   -0.76507  -0.73294  -0.67166  -0.65883  -0.64700
 Alpha  occ. eigenvalues --   -0.63103  -0.62346  -0.61481  -0.60759  -0.59619
 Alpha  occ. eigenvalues --   -0.57599  -0.56473  -0.55958  -0.54717  -0.54390
 Alpha  occ. eigenvalues --   -0.54248  -0.53078  -0.52437  -0.51738  -0.51204
 Alpha  occ. eigenvalues --   -0.50700  -0.50202  -0.49843  -0.48613  -0.48071
 Alpha  occ. eigenvalues --   -0.45611  -0.44509  -0.43413  -0.42662  -0.42361
 Alpha  occ. eigenvalues --   -0.41653  -0.39329  -0.38883  -0.37807
 Alpha virt. eigenvalues --   -0.00851   0.01778   0.02319   0.02430   0.03341
 Alpha virt. eigenvalues --    0.03872   0.07981   0.08117   0.09660   0.10219
 Alpha virt. eigenvalues --    0.11313   0.12014   0.12340   0.12639   0.12797

 Mulliken charges:
               1
     1  C    0.598838
     2  C   -0.240318
     3  C   -0.225902
     4  C    0.600575
     5  H    0.184847
     6  H    0.183288
     7  C   -0.261143
     8  H    0.158907
     9  H    0.168222
    10  H    0.168352
    11  N   -0.464602
    12  O   -0.506832
    13  O   -0.513899
    14  C   -0.110512
    15  H    0.169390
    16  C   -0.014623
    17  H    0.144057
    18  C   -0.179017
    19  H    0.154315
    20  C   -0.158964
    21  H    0.154643
    22  C   -0.488159
    23  H    0.159682
    24  H    0.163787
    25  H    0.157622
    26  C   -0.019749
    27  H    0.145824
    28  H    0.160679
    29  C    0.689256
    30  C   -0.594682
    31  H    0.211474
    32  H    0.211150
    33  H    0.209380
    34  O   -0.551222
    35  O   -0.464667
 Sum of Mulliken charges =   0.00000

 Dipole moment (field-independent basis, Debye):
    X=              2.2751    Y=              3.6309    Z=              0.2529  Tot=              4.2922
 N-N= 7.872913043557D+02 E-N=-1.444601596822D+03  KE=-6.390630315521D+01
  Exact polarizability: 162.481 -39.339 166.852   0.741   3.432  84.498
 Approx polarizability:  97.279 -28.477 111.049   0.836   3.594  56.091
 D2PCM: C-PCM CHGder 2nd derivatives, FixD1E=F FixD2E=F DoIter=F DoCFld=F I1PDM=0
 Calling FoFJK, ICntrl=    100127 FMM=F ISym2X=0 I1Cent= 0 IOpClX= 0 NMat=1 NMatS=1 NMatT=0.
 Full mass-weighted force constant matrix:
 Low frequencies ---   -8.8321   -0.1901   -0.0305   -0.0151    3.1061    4.1929
 Low frequencies ---   14.0991   17.1063   29.2897
 Diagonal vibrational polarizability:
      117.2029926     147.5719712     254.2776333

                      1                      2                      3
                      A                      A                      A
 Frequencies --     10.1764                16.8156                29.1313
 Red. masses --      1.1868                 4.0668                 4.2704
 Frc consts  --      0.0001                 0.0007                 0.0021
 IR Inten    --      0.3044                 1.4395                 0.3275

                      4                      5                      6
                      A                      A                      A
 Frequencies --     32.5185                58.0557                68.5789
 Red. masses --      5.6930                 1.3280                 2.1575
 Frc consts  --      0.0035                 0.0026                 0.0060
 IR Inten    --      2.3320                 5.1258                 2.4199

                      7                      8                      9
                      A                      A                      A
 Frequencies --     84.6807               124.3485               141.0929
 Red. masses --      3.7150                 6.1486                 5.6134
 Frc consts  --      0.0157                 0.0560                 0.0658
 IR Inten    --      5.5528                 2.8874                 6.6896

                     10                     11                     12
                      A                      A                      A
 Frequencies --    165.3149               177.0477               191.6221
 Red. masses --      1.2256                 2.4661                 4.1409
 Frc consts  --      0.0197                 0.0455                 0.0896
 IR Inten    --      0.6287                 0.8335                 4.8911

                     13                     14                     15
                      A                      A                      A
 Frequencies --    218.9619               232.6620               255.3433
 Red. masses --      4.7535                 4.5744                 3.2927
 Frc consts  --      0.1343                 0.1459                 0.1265
 IR Inten    --      3.2340                 8.2377                 3.3263

                     16                     17                     18
                      A                      A                      A
 Frequencies --    259.3951               286.3402               304.6282
 Red. masses --      2.9345                 3.5494                 4.0758
 Frc consts  --      0.1163                 0.1715                 0.2228
 IR Inten    --     13.5478                15.1653                 5.5731

                     19                     20                     21
                      A                      A                      A
 Frequencies --    363.3658               393.1919               413.8764
 Red. masses --      5.6810                 4.4843                 3.8303
 Frc consts  --      0.4419                 0.4085                 0.3866
 IR Inten    --     41.9403                 0.2218                22.3982

                     22                     23                     24
                      A                      A                      A
 Frequencies --    447.2878               513.5430               518.7754
 Red. masses --      4.2868                 2.9492                 4.9803
 Frc consts  --      0.5053                 0.4582                 0.7897
 IR Inten    --     13.0196                 1.8926                 5.7892

                     25                     26                     27
                      A                      A                      A
 Frequencies --    550.0724               560.4712               569.2037
 Red. masses --      3.5667                 4.2761                 5.6855
 Frc consts  --      0.6359                 0.7914                 1.0853
 IR Inten    --     14.3047                 7.5974                 0.7880

                     28                     29                     30
                      A                      A                      A
 Frequencies --    604.2416               614.8759               659.1944
 Red. masses --      5.8495                 5.2630                 5.6013
 Frc consts  --      1.2583                 1.1724                 1.4340
 IR Inten    --      5.8712                40.6050                62.0277

                     31                     32                     33
                      A                      A                      A
 Frequencies --    725.1128               816.4721               817.4128
 Red. masses --      5.8259                 1.5458                 3.9535
 Frc consts  --      1.8048                 0.6071                 1.5564
 IR Inten    --      4.9901                56.1833                36.0337

                     34                     35                     36
                      A                      A                      A
 Frequencies --    838.8926               889.6210               909.5977
 Red. masses --      3.0620                 2.5531                 2.9499
 Frc consts  --      1.2696                 1.1905                 1.4380
 IR Inten    --     22.8967                19.3137                 7.5135

                     37                     38                     39
                      A                      A                      A
 Frequencies --    931.1105               954.3752               965.4207
 Red. masses --      2.2435                 1.5781                 1.7353
 Frc consts  --      1.1460                 0.8469                 0.9529
 IR Inten    --     14.5915                21.9481                 2.3210

                     40                     41                     42
                      A                      A                      A
 Frequencies --    979.0505               999.1327              1018.4693
 Red. masses --      1.8089                 1.7393                 1.7860
 Frc consts  --      1.0216                 1.0230                 1.0915
 IR Inten    --     67.3038               143.0300               100.3283

                     43                     44                     45
                      A                      A                      A
 Frequencies --   1024.3137              1045.3508              1058.4875
 Red. masses --      1.5989                 1.6820                 1.3824
 Frc consts  --      0.9884                 1.0829                 0.9126
 IR Inten    --    111.2394                 6.8047                16.0469

                     46                     47                     48
                      A                      A                      A
 Frequencies --   1060.6257              1075.9992              1095.7507
 Red. masses --      1.5050                 2.8243                 3.0590
 Frc consts  --      0.9975                 1.9266                 2.1640
 IR Inten    --      5.3902                39.0455               259.4428

                     49                     50                     51
                      A                      A                      A
 Frequencies --   1103.5672              1124.6577              1141.3120
 Red. masses --      3.5125                 2.3560                 2.1729
 Frc consts  --      2.5204                 1.7557                 1.6676
 IR Inten    --    174.2409               114.5916                24.2996

                     52                     53                     54
                      A                      A                      A
 Frequencies --   1153.8591              1160.7515              1167.1523
 Red. masses --      1.3319                 1.3165                 1.5005
 Frc consts  --      1.0448                 1.0451                 1.2043
 IR Inten    --      1.0810                20.1073                29.6729

                     55                     56                     57
                      A                      A                      A
 Frequencies --   1172.0936              1183.6006              1185.0637
 Red. masses --      1.3977                 1.1928                 1.1418
 Frc consts  --      1.1313                 0.9845                 0.9448
 IR Inten    --     14.9492               110.2218                73.7253

                     58                     59                     60
                      A                      A                      A
 Frequencies --   1197.6064              1200.4228              1225.1044
 Red. masses --      1.4191                 1.0555                 1.1016
 Frc consts  --      1.1992                 0.8962                 0.9741
 IR Inten    --     15.8887                80.3256                32.2987

                     61                     62                     63
                      A                      A                      A
 Frequencies --   1225.4173              1228.5878              1239.3469
 Red. masses --      1.0953                 2.2915                 1.5457
 Frc consts  --      0.9691                 2.0379                 1.3988
 IR Inten    --     25.0146               409.0864                85.0213

                     64                     65                     66
                      A                      A                      A
 Frequencies --   1244.2799              1252.0275              1256.4681
 Red. masses --      1.1546                 1.4375                 1.4078
 Frc consts  --      1.0532                 1.3276                 1.3095
 IR Inten    --     62.6441                13.4609                14.6179

                     67                     68                     69
                      A                      A                      A
 Frequencies --   1257.7416              1270.3853              1275.8470
 Red. masses --      1.6664                 1.3716                 1.6445
 Frc consts  --      1.5532                 1.3042                 1.5772
 IR Inten    --     22.6464                12.7741                 7.3806

                     70                     71                     72
                      A                      A                      A
 Frequencies --   1285.0035              1297.9097              1298.6255
 Red. masses --      1.5036                 2.5191                 1.3917
 Frc consts  --      1.4628                 2.5003                 1.3829
 IR Inten    --     68.0382               550.5832               142.0110

                     73                     74                     75
                      A                      A                      A
 Frequencies --   1302.7546              1321.7905              1325.6437
 Red. masses --      1.4752                 1.2599                 1.6254
 Frc consts  --      1.4751                 1.2969                 1.6829
 IR Inten    --    119.9070                 0.3680                41.2227

                     76                     77                     78
                      A                      A                      A
 Frequencies --   1336.0319              1346.4725              1434.7603
 Red. masses --      1.4753                 1.9855                 5.5648
 Frc consts  --      1.5516                 2.1209                 6.7492
 IR Inten    --     40.3168                15.2014               296.0356

                     79                     80                     81
                      A                      A                      A
 Frequencies --   1756.5527              1798.8943              1802.1350
 Red. masses --     13.0532                11.7390                 9.2884
 Frc consts  --     23.7296                22.3817                17.7731
 IR Inten    --   1525.7214               646.3606                 0.3549

                     82                     83                     84
                      A                      A                      A
 Frequencies --   1840.9669              2599.6006              2656.7409
 Red. masses --     12.8310                 1.0793                 1.0693
 Frc consts  --     25.6213                 4.2973                 4.4466
 IR Inten    --     38.4550                23.6014                 7.9756

                     85                     86                     87
                      A                      A                      A
 Frequencies --   2660.0356              2663.6142              2664.4742
 Red. masses --      1.0862                 1.0708                 1.0872
 Frc consts  --      4.5282                 4.4759                 4.5476
 IR Inten    --     82.4702                59.2904               112.0633

                     88                     89                     90
                      A                      A                      A
 Frequencies --   2667.8084              2667.9307              2672.6033
 Red. masses --      1.0663                 1.0846                 1.0765
 Frc consts  --      4.4713                 4.5487                 4.5304
 IR Inten    --     37.0920               180.6576               171.7289

                     91                     92                     93
                      A                      A                      A
 Frequencies --   2674.6085              2681.8919              2690.2790
 Red. masses --      1.0873                 1.0670                 1.0869
 Frc consts  --      4.5827                 4.5215                 4.6349
 IR Inten    --    164.6262               193.2992                92.4733

                     94                     95                     96
                      A                      A                      A
 Frequencies --   2699.1528              2741.1563              2755.3691
 Red. masses --      1.0541                 1.0692                 1.0774
 Frc consts  --      4.5246                 4.7333                 4.8194
 IR Inten    --     86.3988               127.5265               104.6568

                     97                     98                     99
                      A                      A                      A
 Frequencies --   2757.7645              2778.2379              2778.4056
 Red. masses --      1.0288                 1.0320                 1.0320
 Frc consts  --      4.6099                 4.6930                 4.6936
 IR Inten    --     46.6320                91.5618                59.5421

 - Thermochemistry -
 -------------------
 Temperature   298.150 Kelvin.  Pressure   1.00000 Atm.
 Atom     1 has atomic number  6 and mass  12.00000

 Molecular mass:   251.11576 amu.
 Principal axes and moments of inertia in atomic units:
                           1         2         3
     Eigenvalues --  2423.085026707.527208273.23264
           X            0.99994   0.01042   0.00385
           Y           -0.01035   0.99976  -0.01912
           Z           -0.00404   0.01908   0.99981
 This molecule is an asymmetric top.
 Rotational symmetry number  1.
 Warning -- assumption of classical behavior for rotation
           may cause significant error
 Rotational temperatures (Kelvin)      0.03575     0.01291     0.01047
 Rotational constants (GHZ):           0.74481     0.26906     0.21814
 Zero-point vibrational energy     695583.7 (Joules/Mol)
                                  166.24850 (Kcal/Mol)
 Warning -- explicit consideration of  29 degrees of freedom as
           vibrations may cause significant error
 Vibrational temperatures:     14.64    24.19    41.91    46.79    83.53
          (Kelvin)             98.67   121.84   178.91   203.00   237.85
                              254.73   275.70   315.04   334.75   367.38
                              373.21   411.98   438.29   522.80   565.71
                              595.48   643.55   738.87   746.40   791.43
                              806.39   818.96   869.37   884.67   948.43
                             1043.27  1174.72  1176.07  1206.98  1279.96
                             1308.71  1339.66  1373.13  1389.02  1408.63
                             1437.53  1465.35  1473.76  1504.02  1522.93
                             1526.00  1548.12  1576.54  1587.79  1618.13
                             1642.09  1660.14  1670.06  1679.27  1686.38
                             1702.94  1705.04  1723.09  1727.14  1762.65
                             1763.10  1767.66  1783.14  1790.24  1801.39
                             1807.78  1809.61  1827.80  1835.66  1848.83
                             1867.40  1868.43  1874.37  1901.76  1907.30
                             1922.25  1937.27  2064.30  2527.28  2588.20
                             2592.87  2648.74  3740.24  3822.45  3827.19
                             3832.34  3833.58  3838.38  3838.55  3845.28
                             3848.16  3858.64  3870.71  3883.47  3943.91
                             3964.36  3967.80  3997.26  3997.50

 Zero-point correction=                           0.264934 (Hartree/Particle)
 Thermal correction to Energy=                    0.283647
 Thermal correction to Enthalpy=                  0.284591
 Thermal correction to Gibbs Free Energy=         0.213874
 Sum of electronic and zero-point Energies=             -0.038404
 Sum of electronic and thermal Energies=                -0.019691
 Sum of electronic and thermal Enthalpies=              -0.018746
 Sum of electronic and thermal Free Energies=           -0.089463

                     E (Thermal)             CV                S
                      KCal/Mol        Cal/Mol-Kelvin    Cal/Mol-Kelvin
 Total                  177.991             67.881            148.837
 Electronic               0.000              0.000              0.000
 Translational            0.889              2.981             42.463
 Rotational               0.889              2.981             33.264
 Vibrational            176.214             61.919             73.110
 Vibration     1          0.593              1.987              7.976
 Vibration     2          0.593              1.986              6.979
 Vibration     3          0.593              1.984              5.888
 Vibration     4          0.594              1.983              5.670
 Vibration     5          0.596              1.974              4.522
 Vibration     6          0.598              1.969              4.194
 Vibration     7          0.601              1.960              3.779
 Vibration     8          0.610              1.929              3.032
 Vibration     9          0.615              1.912              2.789
 Vibration    10          0.624              1.885              2.488
 Vibration    11          0.628              1.871              2.359
 Vibration    12          0.634              1.851              2.212
 Vibration    13          0.647              1.812              1.968
 Vibration    14          0.653              1.791              1.858
 Vibration    15          0.666              1.754              1.693
 Vibration    16          0.668              1.747              1.666
 Vibration    17          0.684              1.699              1.496
 Vibration    18          0.696              1.665              1.391
 Vibration    19          0.737              1.548              1.108
 Vibration    20          0.760              1.485              0.988
 Vibration    21          0.777              1.440              0.913
 Vibration    22          0.806              1.367              0.804
 Vibration    23          0.869              1.220              0.625
 Vibration    24          0.874              1.208              0.613
 Vibration    25          0.905              1.140              0.544
 Vibration    26          0.916              1.117              0.523
 Vibration    27          0.925              1.098              0.506
 Vibration    28          0.963              1.023              0.442
 Vibration    29          0.974              1.000              0.425

 Normal termination of Gaussian 09 at Thu Jul 23 01:56:06 2020.
