 Gaussian 09, Revision D.01,
 Gaussian 09:  ES64L-G09RevD.01 24-Apr-2013

 ------------------------------------------------------------------
 # opt freq pm6 scrf=(cpcm,solvent=toluene) empiricaldispersion=gd3
 ------------------------------------------------------------------

 -------------------
 Title Card Required
 -------------------
 Symbolic Z-matrix:
 Charge =  0 Multiplicity = 1

 SCF Done:  E(RPM6D3) = -0.897356748666E-01 A.U. after   14 cycles
 Optimization completed.
    -- Stationary point found.
 Normal termination of Gaussian 09 at Thu Jul 23 01:48:25 2020.

 -------------------------------------------------------------
 #N Geom=AllCheck Guess=TCheck SCRF=Check GenChk RPM6/ZDO Freq
 -------------------------------------------------------------

 Structure from the checkpoint file:  "dienophile_pm6_cpcmtoluene_1.chk"
 -------------------
 Title Card Required
 -------------------
 Charge =  0 Multiplicity = 1

                         Standard orientation:
 ---------------------------------------------------------------------
 Center     Atomic      Atomic             Coordinates (Angstroms)
 Number     Number       Type             X           Y           Z
 ---------------------------------------------------------------------
      1          6           0       -1.182439   -0.214910   -0.000888
      2          6           0       -0.668774   -1.643015    0.003866
      3          6           0        0.668660   -1.643052    0.003862
      4          6           0        1.182403   -0.214975   -0.000894
      5          1           0       -1.362513   -2.471888    0.006319
      6          1           0        1.362353   -2.471963    0.006312
      7          6           0        0.000045    2.072890    0.007087
      8          1           0        0.952700    2.460536   -0.396669
      9          1           0       -0.827502    2.462606   -0.612691
     10          1           0       -0.124343    2.456130    1.035823
     11          7           0        0.000005    0.599609   -0.006700
     12          8           0        2.311185    0.201542   -0.004406
     13          8           0       -2.311197    0.201669   -0.004394
 ---------------------------------------------------------------------

 SCF Done:  E(RPM6D3) = -0.897356748670E-01 A.U. after    2 cycles

 The electronic state is 1-A.
 Alpha  occ. eigenvalues --   -1.24063  -1.20573  -1.17576  -1.06578  -0.91717
 Alpha  occ. eigenvalues --   -0.88682  -0.78357  -0.74890  -0.64653  -0.62919
 Alpha  occ. eigenvalues --   -0.61155  -0.58413  -0.56804  -0.55818  -0.53773
 Alpha  occ. eigenvalues --   -0.53411  -0.51076  -0.44083  -0.43870  -0.40315
 Alpha  occ. eigenvalues --   -0.38916
 Alpha virt. eigenvalues --   -0.05770   0.01687   0.02567   0.03221   0.07813
 Alpha virt. eigenvalues --    0.08021   0.12135   0.12539   0.14454   0.16718
 Alpha virt. eigenvalues --    0.17053   0.18638   0.18657   0.18795   0.19182

 Mulliken charges:
               1
     1  C    0.608092
     2  C   -0.215680
     3  C   -0.215540
     4  C    0.607880
     5  H    0.201871
     6  H    0.201854
     7  C   -0.250877
     8  H    0.168222
     9  H    0.165391
    10  H    0.157573
    11  N   -0.490990
    12  O   -0.469218
    13  O   -0.468577
 Sum of Mulliken charges =   0.00000

 Dipole moment (field-independent basis, Debye):
    X=              0.0100    Y=             -1.3802    Z=              0.0134  Tot=              1.3803
 N-N= 2.126176244080D+02 E-N=-3.711574441523D+02  KE=-2.451442511824D+01
  Exact polarizability: 124.631  -0.113  57.502   0.004   0.075  15.557
 Approx polarizability:  84.099  -0.052  35.743   0.003  -0.010   9.625
 D2PCM: C-PCM CHGder 2nd derivatives, FixD1E=F FixD2E=F DoIter=F DoCFld=F I1PDM=0
 Calling FoFJK, ICntrl=    100127 FMM=F ISym2X=0 I1Cent= 0 IOpClX= 0 NMat=1 NMatS=1 NMatT=0.
 Full mass-weighted force constant matrix:
 Low frequencies ---  -17.0695   -4.5361   -0.0197   -0.0013    0.0157    7.0027
 Low frequencies ---   17.8657  110.0048  187.1909
 Diagonal vibrational polarizability:
       50.9366956      17.9025599      72.9425903

                      1                      2                      3
                      A                      A                      A
 Frequencies --     12.8918               109.9930               187.1817
 Red. masses --      1.0245                 5.8937                 5.0804
 Frc consts  --      0.0001                 0.0420                 0.1049
 IR Inten    --      0.1073                19.9952                12.0025

                      4                      5                      6
                      A                      A                      A
 Frequencies --    250.5924               257.9901               350.0433
 Red. masses --      3.2946                 3.4951                10.5940
 Frc consts  --      0.1219                 0.1371                 0.7648
 IR Inten    --      5.4798                 0.0151                43.5665

                      7                      8                      9
                      A                      A                      A
 Frequencies --    528.7682               542.6719               554.0203
 Red. masses --      4.9134                 9.3771                 3.5214
 Frc consts  --      0.8094                 1.6270                 0.6368
 IR Inten    --     30.5082                 0.6665                42.8601

                     10                     11                     12
                      A                      A                      A
 Frequencies --    645.4911               670.2214               835.5858
 Red. masses --      8.2139                 4.2853                 6.2903
 Frc consts  --      2.0164                 1.1341                 2.5876
 IR Inten    --     24.2090                 0.0142                16.7989

                     13                     14                     15
                      A                      A                      A
 Frequencies --    882.5695               960.9592               961.7108
 Red. masses --      1.5221                 1.8250                 1.7342
 Frc consts  --      0.6985                 0.9929                 0.9450
 IR Inten    --    196.9471               123.7691                69.1248

                     16                     17                     18
                      A                      A                      A
 Frequencies --   1024.6707              1051.3236              1057.7808
 Red. masses --      2.9049                 1.6543                 1.2984
 Frc consts  --      1.7970                 1.0773                 0.8560
 IR Inten    --    195.0225                76.1113                10.3175

                     19                     20                     21
                      A                      A                      A
 Frequencies --   1173.2449              1203.4097              1226.9835
 Red. masses --      2.1953                 1.9086                 1.0458
 Frc consts  --      1.7804                 1.6285                 0.9276
 IR Inten    --     39.2443                25.8806                46.9732

                     22                     23                     24
                      A                      A                      A
 Frequencies --   1229.3766              1259.4632              1322.3783
 Red. masses --      1.2804                 1.7022                 1.2870
 Frc consts  --      1.1401                 1.5909                 1.3260
 IR Inten    --      4.3269               316.2736                 0.1216

                     25                     26                     27
                      A                      A                      A
 Frequencies --   1432.1567              1737.8764              1781.7019
 Red. masses --      5.1663                 8.4341                13.1428
 Frc consts  --      6.2433                15.0081                24.5815
 IR Inten    --    282.5553                 4.0995              1942.5026

                     28                     29                     30
                      A                      A                      A
 Frequencies --   1875.7385              2658.9710              2663.4993
 Red. masses --     12.8751                 1.0861                 1.0873
 Frc consts  --     26.6898                 4.5244                 4.5448
 IR Inten    --      4.7660                84.9660                92.7749

                     31                     32                     33
                      A                      A                      A
 Frequencies --   2743.3423              2755.2626              2759.9747
 Red. masses --      1.0749                 1.0392                 1.0774
 Frc consts  --      4.7665                 4.6480                 4.8353
 IR Inten    --    216.6978               166.9190               136.9673

 - Thermochemistry -
 -------------------
 Temperature   298.150 Kelvin.  Pressure   1.00000 Atm.
 Atom     1 has atomic number  6 and mass  12.00000

 Molecular mass:   111.03203 amu.
 Principal axes and moments of inertia in atomic units:
                           1         2         3
     Eigenvalues --   556.99020 793.300261338.71650
           X            1.00000   0.00002   0.00000
           Y           -0.00002   1.00000   0.00019
           Z            0.00000  -0.00019   1.00000
 This molecule is an asymmetric top.
 Rotational symmetry number  1.
 Warning -- assumption of classical behavior for rotation
           may cause significant error
 Rotational temperatures (Kelvin)      0.15550     0.10918     0.06470
 Rotational constants (GHZ):           3.24017     2.27498     1.34811
 Zero-point vibrational energy     231524.3 (Joules/Mol)
                                   55.33564 (Kcal/Mol)
 Warning -- explicit consideration of   9 degrees of freedom as
           vibrations may cause significant error
 Vibrational temperatures:     18.55   158.26   269.31   360.55   371.19
          (Kelvin)            503.63   760.78   780.78   797.11   928.72
                              964.30  1202.22  1269.82  1382.60  1383.69
                             1474.27  1512.62  1521.91  1688.04  1731.44
                             1765.35  1768.80  1812.08  1902.61  2060.55
                             2500.41  2563.47  2698.77  3825.66  3832.18
                             3947.05  3964.20  3970.98

 Zero-point correction=                           0.088183 (Hartree/Particle)
 Thermal correction to Energy=                    0.095801
 Thermal correction to Enthalpy=                  0.096745
 Thermal correction to Gibbs Free Energy=         0.054490
 Sum of electronic and zero-point Energies=             -0.001553
 Sum of electronic and thermal Energies=                 0.006065
 Sum of electronic and thermal Enthalpies=               0.007010
 Sum of electronic and thermal Free Energies=           -0.035246

                     E (Thermal)             CV                S
                      KCal/Mol        Cal/Mol-Kelvin    Cal/Mol-Kelvin
 Total                   60.116             26.368             88.934
 Electronic               0.000              0.000              0.000
 Translational            0.889              2.981             40.030
 Rotational               0.889              2.981             27.872
 Vibrational             58.339             20.406             21.032
 Vibration     1          0.593              1.987              7.506
 Vibration     2          0.606              1.941              3.269
 Vibration     3          0.632              1.857              2.256
 Vibration     4          0.663              1.762              1.726
 Vibration     5          0.667              1.749              1.675
 Vibration     6          0.727              1.575              1.166
 Vibration     7          0.884              1.186              0.590
 Vibration     8          0.898              1.156              0.560
 Vibration     9          0.909              1.131              0.536

 Normal termination of Gaussian 09 at Thu Jul 23 01:48:28 2020.
