 Gaussian 09, Revision D.01,
 Gaussian 09:  ES64L-G09RevD.01 24-Apr-2013

 ----------------------------------------------------------------------
 # opt freq pm6 scrf=(cpcm,solvent=toluene) geom=connectivity empirical
 dispersion=gd3
 ----------------------------------------------------------------------

 -------------------
 Title Card Required
 -------------------
 Symbolic Z-matrix:
 Charge =  0 Multiplicity = 1

 SCF Done:  E(RPM6D3) = -0.867403007315E-01 A.U. after   15 cycles
 SCF Done:  E(RPM6D3) = -0.112151604581     A.U. after   14 cycles
 SCF Done:  E(RPM6D3) = -0.118239362641     A.U. after   14 cycles
 SCF Done:  E(RPM6D3) = -0.120639719354     A.U. after   13 cycles
 SCF Done:  E(RPM6D3) = -0.118507027125     A.U. after   14 cycles
 SCF Done:  E(RPM6D3) = -0.121031962954     A.U. after   11 cycles
 SCF Done:  E(RPM6D3) = -0.121704176572     A.U. after   13 cycles
 SCF Done:  E(RPM6D3) = -0.121975780822     A.U. after   13 cycles
 SCF Done:  E(RPM6D3) = -0.122123526687     A.U. after   13 cycles
 SCF Done:  E(RPM6D3) = -0.122255958520     A.U. after   13 cycles
 SCF Done:  E(RPM6D3) = -0.121250438540     A.U. after   13 cycles
 SCF Done:  E(RPM6D3) = -0.122590372470     A.U. after    4 cycles
 SCF Done:  E(RPM6D3) = -0.122535105567     A.U. after   14 cycles
 SCF Done:  E(RPM6D3) = -0.122591307167     A.U. after   14 cycles
 SCF Done:  E(RPM6D3) = -0.122591989542     A.U. after   11 cycles
 SCF Done:  E(RPM6D3) = -0.122591740454     A.U. after   12 cycles
 SCF Done:  E(RPM6D3) = -0.122593719657     A.U. after   10 cycles
 SCF Done:  E(RPM6D3) = -0.122593539403     A.U. after   10 cycles
 SCF Done:  E(RPM6D3) = -0.122593856434     A.U. after   10 cycles
 Optimization completed.
    -- Stationary point found.
 Normal termination of Gaussian 09 at Wed Jul 22 15:57:11 2020.

 -------------------------------------------------------------
 #N Geom=AllCheck Guess=TCheck SCRF=Check GenChk RPM6/ZDO Freq
 -------------------------------------------------------------

 Structure from the checkpoint file:  "diene_cpcmtoluene.chk"
 -------------------
 Title Card Required
 -------------------
 Charge =  0 Multiplicity = 1

                         Standard orientation:
 ---------------------------------------------------------------------
 Center     Atomic      Atomic             Coordinates (Angstroms)
 Number     Number       Type             X           Y           Z
 ---------------------------------------------------------------------
      1          6           0        2.558923   -0.594345   -0.330502
      2          1           0        2.846274   -1.452949   -0.943183
      3          6           0        1.114552   -0.373872   -0.238765
      4          1           0        0.508115   -1.288366   -0.213032
      5          6           0        3.477035    0.159280    0.290725
      6          1           0        3.193636    1.007526    0.918175
      7          6           0        4.942676   -0.087443    0.200520
      8          1           0        5.370969   -0.297480    1.192203
      9          1           0        5.202225   -0.935827   -0.447031
     10          1           0        5.469363    0.793301   -0.196199
     11          6           0        0.534615    0.832205   -0.202615
     12          1           0        1.110106    1.759665   -0.241237
     13          6           0       -0.941113    1.055226   -0.118200
     14          1           0       -1.334093    1.537162   -1.033671
     15          1           0       -1.215378    1.642096    0.778922
     16          6           0       -2.927929   -0.402781    0.089459
     17          6           0       -3.788479    0.808220    0.069252
     18          1           0       -3.687338    1.383788   -0.864214
     19          1           0       -4.855514    0.536191    0.153403
     20          1           0       -3.575412    1.493264    0.904674
     21          8           0       -1.557545   -0.266283   -0.000287
     22          8           0       -3.299284   -1.553381    0.179280
 ---------------------------------------------------------------------

 SCF Done:  E(RPM6D3) = -0.122593856434     A.U. after    2 cycles

 The electronic state is 1-A.
 Alpha  occ. eigenvalues --   -1.18166  -1.12755  -1.05137  -1.01120  -0.99070
 Alpha  occ. eigenvalues --   -0.94208  -0.84691  -0.79121  -0.75125  -0.68490
 Alpha  occ. eigenvalues --   -0.65512  -0.63205  -0.61363  -0.58148  -0.56043
 Alpha  occ. eigenvalues --   -0.55367  -0.52984  -0.52126  -0.51869  -0.51065
 Alpha  occ. eigenvalues --   -0.49917  -0.47962  -0.45618  -0.44653  -0.42696
 Alpha  occ. eigenvalues --   -0.40981  -0.40432  -0.34524
 Alpha virt. eigenvalues --    0.01173   0.02270   0.03632   0.06105   0.09266
 Alpha virt. eigenvalues --    0.12370   0.13965   0.15396   0.16698   0.17380
 Alpha virt. eigenvalues --    0.17887   0.18282   0.18359   0.18872   0.19028

 Mulliken charges:
               1
     1  C   -0.241885
     2  H    0.160100
     3  C   -0.077754
     4  H    0.162682
     5  C   -0.054316
     6  H    0.137200
     7  C   -0.490362
     8  H    0.167631
     9  H    0.163045
    10  H    0.166930
    11  C   -0.243524
    12  H    0.164268
    13  C    0.015789
    14  H    0.137806
    15  H    0.137233
    16  C    0.698939
    17  C   -0.642151
    18  H    0.209170
    19  H    0.213267
    20  H    0.208898
    21  O   -0.471587
    22  O   -0.521379
 Sum of Mulliken charges =   0.00000

 Dipole moment (field-independent basis, Debye):
    X=              1.3532    Y=              5.6830    Z=             -0.1824  Tot=              5.8448
 N-N= 2.991106125505D+02 E-N=-5.278184126624D+02  KE=-3.382778758635D+01
  Exact polarizability: 131.778   3.431  89.655  10.226   5.216  38.327
 Approx polarizability:  65.755   6.262  63.152   4.031   4.499  23.943
 D2PCM: C-PCM CHGder 2nd derivatives, FixD1E=F FixD2E=F DoIter=F DoCFld=F I1PDM=0
 Calling FoFJK, ICntrl=    100127 FMM=F ISym2X=0 I1Cent= 0 IOpClX= 0 NMat=1 NMatS=1 NMatT=0.
 Full mass-weighted force constant matrix:
 Low frequencies ---   -0.1672   -0.0614   -0.0279    1.2213    4.6977   12.7405
 Low frequencies ---   22.5870   29.2399   64.1513
 Diagonal vibrational polarizability:
       75.2393876      25.9172216     274.9175929

                      1                      2                      3
                      A                      A                      A
 Frequencies --     22.5124                28.9896                64.0818
 Red. masses --      2.5950                 3.4303                 1.2440
 Frc consts  --      0.0008                 0.0017                 0.0030
 IR Inten    --      1.8245                 5.5136                 0.4630

                      4                      5                      6
                      A                      A                      A
 Frequencies --     72.2623                90.1914               112.4932
 Red. masses --      3.6577                 1.5766                 1.0733
 Frc consts  --      0.0113                 0.0076                 0.0080
 IR Inten    --      4.2872                 0.2471                 1.1633

                      7                      8                      9
                      A                      A                      A
 Frequencies --    119.1618               145.7266               147.8440
 Red. masses --      5.3005                 2.5013                 2.8173
 Frc consts  --      0.0443                 0.0313                 0.0363
 IR Inten    --      0.0349                 4.7855                 3.5462

                     10                     11                     12
                      A                      A                      A
 Frequencies --    217.4919               309.9035               349.3364
 Red. masses --      3.8116                 2.7231                 3.3181
 Frc consts  --      0.1062                 0.1541                 0.2386
 IR Inten    --      1.9211                 0.3507                 0.8359

                     13                     14                     15
                      A                      A                      A
 Frequencies --    417.2445               517.7516               531.9208
 Red. masses --      3.9190                 4.5225                 6.3387
 Frc consts  --      0.4020                 0.7143                 1.0567
 IR Inten    --      5.8470                 1.7684                61.7430

                     16                     17                     18
                      A                      A                      A
 Frequencies --    536.8649               662.5003               787.5777
 Red. masses --      3.0956                 3.4677                 1.5058
 Frc consts  --      0.5257                 0.8967                 0.5503
 IR Inten    --     12.1879                 2.9736                12.1574

                     19                     20                     21
                      A                      A                      A
 Frequencies --    846.5195               914.8318               939.5716
 Red. masses --      1.4191                 3.8878                 1.1214
 Frc consts  --      0.5992                 1.9170                 0.5833
 IR Inten    --      6.1500                16.4061               136.8801

                     22                     23                     24
                      A                      A                      A
 Frequencies --    958.3684               974.4870               982.0665
 Red. masses --      1.3974                 1.3100                 1.8242
 Frc consts  --      0.7562                 0.7330                 1.0366
 IR Inten    --      6.1677                39.6572                15.1736

                     25                     26                     27
                      A                      A                      A
 Frequencies --    993.7518              1020.2858              1034.6868
 Red. masses --      1.6254                 1.6185                 1.6106
 Frc consts  --      0.9457                 0.9927                 1.0159
 IR Inten    --      1.8495               118.7447                14.5750

                     28                     29                     30
                      A                      A                      A
 Frequencies --   1071.1842              1110.7280              1133.5589
 Red. masses --      2.6005                 3.2058                 1.0586
 Frc consts  --      1.7581                 2.3302                 0.8014
 IR Inten    --     40.2048               171.8874                 0.9203

                     31                     32                     33
                      A                      A                      A
 Frequencies --   1176.9525              1194.4146              1199.2202
 Red. masses --      2.0929                 1.0729                 1.0585
 Frc consts  --      1.7081                 0.9018                 0.8969
 IR Inten    --     86.4151                79.6960                95.9127

                     34                     35                     36
                      A                      A                      A
 Frequencies --   1222.8538              1229.1839              1235.0680
 Red. masses --      1.1026                 1.3227                 1.0549
 Frc consts  --      0.9714                 1.1774                 0.9481
 IR Inten    --     43.3055                40.4852                55.1816

                     37                     38                     39
                      A                      A                      A
 Frequencies --   1240.6522              1266.0181              1272.2456
 Red. masses --      1.8893                 1.4124                 1.1749
 Frc consts  --      1.7134                 1.3338                 1.1205
 IR Inten    --    551.9376               162.2821                 8.3629

                     40                     41                     42
                      A                      A                      A
 Frequencies --   1275.8618              1285.3676              1296.4567
 Red. masses --      1.5093                 1.7907                 1.2655
 Frc consts  --      1.4476                 1.7431                 1.2532
 IR Inten    --    108.8906                21.9614               221.9707

                     43                     44                     45
                      A                      A                      A
 Frequencies --   1307.3837              1316.4346              1328.7183
 Red. masses --      1.8259                 1.6487                 1.4723
 Frc consts  --      1.8388                 1.6834                 1.5314
 IR Inten    --     19.4175                86.5475               101.7944

                     46                     47                     48
                      A                      A                      A
 Frequencies --   1783.4469              1784.8854              1794.9791
 Red. masses --     11.7683                 9.3738                 9.5792
 Frc consts  --     22.0539                17.5950                18.1844
 IR Inten    --    593.6007                30.2221                55.5938

                     49                     50                     51
                      A                      A                      A
 Frequencies --   2651.1679              2669.9936              2674.2626
 Red. masses --      1.0883                 1.0864                 1.0866
 Frc consts  --      4.5067                 4.5631                 4.5784
 IR Inten    --     47.5060               159.9464               164.2297

                     52                     53                     54
                      A                      A                      A
 Frequencies --   2683.7737              2687.5044              2707.0404
 Red. masses --      1.0848                 1.0838                 1.0441
 Frc consts  --      4.6034                 4.6122                 4.5079
 IR Inten    --     87.2032                56.1584                48.4698

                     55                     56                     57
                      A                      A                      A
 Frequencies --   2721.5439              2734.1288              2743.4200
 Red. masses --      1.0654                 1.0689                 1.0766
 Frc consts  --      4.6492                 4.7078                 4.7741
 IR Inten    --     23.7858                 4.6225               120.5641

                     58                     59                     60
                      A                      A                      A
 Frequencies --   2751.9345              2781.8451              2785.6336
 Red. masses --      1.0761                 1.0325                 1.0328
 Frc consts  --      4.8014                 4.7079                 4.7218
 IR Inten    --    235.0757               108.7780                58.7663

 - Thermochemistry -
 -------------------
 Temperature   298.150 Kelvin.  Pressure   1.00000 Atm.
 Atom     1 has atomic number  6 and mass  12.00000

 Molecular mass:   140.08373 amu.
 Principal axes and moments of inertia in atomic units:
                           1         2         3
     Eigenvalues --   384.503254303.810214605.58420
           X            0.99986  -0.01670   0.00176
           Y            0.01665   0.99960   0.02279
           Z           -0.00214  -0.02276   0.99974
 This molecule is an asymmetric top.
 Rotational symmetry number  1.
 Rotational temperatures (Kelvin)      0.22526     0.02012     0.01881
 Rotational constants (GHZ):           4.69370     0.41934     0.39186
 Zero-point vibrational energy     442117.6 (Joules/Mol)
                                  105.66864 (Kcal/Mol)
 Warning -- explicit consideration of  16 degrees of freedom as
           vibrations may cause significant error
 Vibrational temperatures:     32.39    41.71    92.20   103.97   129.77
          (Kelvin)            161.85   171.45   209.67   212.71   312.92
                              445.88   502.62   600.32   744.93   765.31
                              772.43   953.19  1133.15  1217.95  1316.24
                             1351.83  1378.88  1402.07  1412.97  1429.79
                             1467.96  1488.68  1541.19  1598.09  1630.94
                             1693.37  1718.49  1725.41  1759.41  1768.52
                             1776.99  1785.02  1821.52  1830.48  1835.68
                             1849.35  1865.31  1881.03  1894.05  1911.73
                             2565.98  2568.05  2582.57  3814.43  3841.52
                             3847.66  3861.35  3866.71  3894.82  3915.69
                             3933.80  3947.16  3959.42  4002.45  4007.90

 Zero-point correction=                           0.168394 (Hartree/Particle)
 Thermal correction to Energy=                    0.181147
 Thermal correction to Enthalpy=                  0.182091
 Thermal correction to Gibbs Free Energy=         0.126632
 Sum of electronic and zero-point Energies=              0.045800
 Sum of electronic and thermal Energies=                 0.058553
 Sum of electronic and thermal Enthalpies=               0.059497
 Sum of electronic and thermal Free Energies=            0.004038

                     E (Thermal)             CV                S
                      KCal/Mol        Cal/Mol-Kelvin    Cal/Mol-Kelvin
 Total                  113.671             42.439            116.723
 Electronic               0.000              0.000              0.000
 Translational            0.889              2.981             40.723
 Rotational               0.889              2.981             30.412
 Vibrational            111.894             36.478             45.588
 Vibration     1          0.593              1.985              6.399
 Vibration     2          0.593              1.984              5.897
 Vibration     3          0.597              1.971              4.327
 Vibration     4          0.598              1.967              4.091
 Vibration     5          0.602              1.956              3.656
 Vibration     6          0.607              1.939              3.225
 Vibration     7          0.609              1.933              3.114
 Vibration     8          0.617              1.907              2.727
 Vibration     9          0.617              1.905              2.700
 Vibration    10          0.646              1.814              1.980
 Vibration    11          0.699              1.655              1.363
 Vibration    12          0.727              1.577              1.169
 Vibration    13          0.780              1.433              0.901
 Vibration    14          0.873              1.211              0.615
 Vibration    15          0.887              1.179              0.583
 Vibration    16          0.892              1.169              0.572

 Normal termination of Gaussian 09 at Wed Jul 22 15:57:16 2020.
