 Gaussian 09, Revision D.01,
 Gaussian 09:  ES64L-G09RevD.01 24-Apr-2013

 ----------------------------------------------------------------------
 # opt=(calcall,qst3) pm6 scrf=(cpcm,solvent=toluene) geom=connectivity
  empiricaldispersion=gd3
 ----------------------------------------------------------------------

 -------------------
 Title Card Required
 -------------------
 Symbolic Z-matrix:
 Charge =  0 Multiplicity = 1

 -------------------
 Title Card Required
 -------------------
 Symbolic Z-matrix:
 Charge =  0 Multiplicity = 1

 -------------------
 Title Card Required
 -------------------
 Symbolic Z-matrix:
 Charge =  0 Multiplicity = 1

 SCF Done:  E(RPM6D3) = -0.189079754992     A.U. after   18 cycles
 SCF Done:  E(RPM6D3) = -0.187669623088     A.U. after   15 cycles
 SCF Done:  E(RPM6D3) = -0.182079401722     A.U. after   16 cycles
 SCF Done:  E(RPM6D3) = -0.172227542772     A.U. after   16 cycles
 SCF Done:  E(RPM6D3) = -0.156985120981     A.U. after   16 cycles
 SCF Done:  E(RPM6D3) = -0.172806482093     A.U. after   17 cycles
 SCF Done:  E(RPM6D3) = -0.178867213570     A.U. after   16 cycles
 SCF Done:  E(RPM6D3) = -0.185218953823     A.U. after   17 cycles
 SCF Done:  E(RPM6D3) = -0.187802051606     A.U. after   16 cycles
 SCF Done:  E(RPM6D3) = -0.189064535800     A.U. after   16 cycles
 SCF Done:  E(RPM6D3) = -0.189764973658     A.U. after   16 cycles
 SCF Done:  E(RPM6D3) = -0.189947410028     A.U. after   16 cycles
 SCF Done:  E(RPM6D3) = -0.189953150515     A.U. after   16 cycles
 SCF Done:  E(RPM6D3) = -0.189955095236     A.U. after   15 cycles
 SCF Done:  E(RPM6D3) = -0.189954496810     A.U. after   13 cycles
 SCF Done:  E(RPM6D3) = -0.189954475481     A.U. after   11 cycles
 Optimization completed.
    -- Stationary point found.

                         Standard orientation:
 ---------------------------------------------------------------------
 Center     Atomic      Atomic             Coordinates (Angstroms)
 Number     Number       Type             X           Y           Z
 ---------------------------------------------------------------------
      1          6           0       -2.325188    0.808657   -0.642013
      2          6           0       -1.341749   -0.212826   -1.049849
      3          6           0       -0.058844    0.153234   -0.633217
      4          6           0       -0.168493    1.531501    0.013790
      5          1           0       -1.580916   -0.946552   -1.801734
      6          1           0        0.856742   -0.115081   -1.156421
      7          6           0       -2.122094    3.087777    0.574475
      8          1           0       -1.620187    3.979717    0.159787
      9          1           0       -3.198955    3.149634    0.331877
     10          1           0       -2.009442    3.103975    1.672358
     11          7           0       -1.549568    1.856161    0.005373
     12          8           0        0.712427    2.240534    0.452904
     13          8           0       -3.526488    0.871889   -0.762809
     14          6           0       -1.016740   -2.659300    0.229482
     15          1           0       -1.091880   -3.623208   -0.281440
     16          6           0        0.268692   -2.180095    0.543607
     17          1           0        1.134193   -2.801682    0.279546
     18          6           0       -2.144650   -1.889846    0.416787
     19          1           0       -2.147208   -1.057790    1.131916
     20          6           0       -3.476826   -2.282292   -0.101688
     21          1           0       -4.060173   -1.403410   -0.436081
     22          1           0       -3.434569   -2.978264   -0.951164
     23          1           0       -4.080164   -2.770916    0.682084
     24          6           0        0.490354   -0.883098    1.008014
     25          1           0       -0.267621   -0.395826    1.639428
     26          6           0        1.897745   -0.449651    1.330150
     27          1           0        2.278704   -0.936808    2.251019
     28          1           0        1.989235    0.650030    1.431853
     29          6           0        3.594256   -0.152510   -0.476387
     30          6           0        3.697376    1.293171   -0.176777
     31          1           0        4.356127    1.485327    0.686452
     32          1           0        4.127749    1.849271   -1.026736
     33          1           0        2.722751    1.773392    0.051208
     34          8           0        2.767635   -0.965290    0.284693
     35          8           0        4.185119   -0.765041   -1.339764
 ---------------------------------------------------------------------

 The electronic state is 1-A.
 Alpha  occ. eigenvalues --   -1.23244  -1.19136  -1.18400  -1.15832  -1.13039
 Alpha  occ. eigenvalues --   -1.09361  -1.03827  -1.02262  -0.99021  -0.95812
 Alpha  occ. eigenvalues --   -0.90332  -0.88217  -0.84881  -0.81002  -0.77493
 Alpha  occ. eigenvalues --   -0.76449  -0.73599  -0.69105  -0.66482  -0.64703
 Alpha  occ. eigenvalues --   -0.63502  -0.62726  -0.61597  -0.60171  -0.59414
 Alpha  occ. eigenvalues --   -0.58021  -0.57153  -0.55802  -0.55539  -0.54646
 Alpha  occ. eigenvalues --   -0.54335  -0.52854  -0.52354  -0.52167  -0.51502
 Alpha  occ. eigenvalues --   -0.50794  -0.50458  -0.50214  -0.48788  -0.47828
 Alpha  occ. eigenvalues --   -0.47314  -0.46152  -0.43257  -0.42382  -0.41156
 Alpha  occ. eigenvalues --   -0.39875  -0.39130  -0.37391  -0.33896
 Alpha virt. eigenvalues --   -0.05641  -0.01936   0.02027   0.02207   0.02629
 Alpha virt. eigenvalues --    0.03313   0.03927   0.05916   0.08681   0.09431
 Alpha virt. eigenvalues --    0.10576   0.11586   0.12423   0.13060   0.13276

 Mulliken charges:
               1
     1  C    0.649377
     2  C   -0.455272
     3  C   -0.104907
     4  C    0.585629
     5  H    0.206992
     6  H    0.185261
     7  C   -0.254194
     8  H    0.159768
     9  H    0.170813
    10  H    0.154882
    11  N   -0.493240
    12  O   -0.537117
    13  O   -0.521861
    14  C   -0.309713
    15  H    0.177383
    16  C    0.004932
    17  H    0.163144
    18  C    0.125742
    19  H    0.136476
    20  C   -0.541473
    21  H    0.197371
    22  H    0.178617
    23  H    0.187636
    24  C   -0.246197
    25  H    0.172319
    26  C   -0.004420
    27  H    0.153235
    28  H    0.156878
    29  C    0.704649
    30  C   -0.657019
    31  H    0.215106
    32  H    0.214966
    33  H    0.231732
    34  O   -0.487794
    35  O   -0.519700
 Sum of Mulliken charges =   0.00000

 Dipole moment (field-independent basis, Debye):
    X=             -2.6181    Y=              0.0755    Z=              3.9323  Tot=              4.7247
 N-N= 7.897033936162D+02 E-N=-1.449188791276D+03  KE=-6.382760906480D+01
  Exact polarizability: 221.844   7.256 187.031   7.260  -3.183 106.544
 Approx polarizability: 147.519   5.100 111.963   8.190   5.034  73.191
 Rotating derivatives to standard orientation.
 Full mass-weighted force constant matrix:
 Low frequencies --- -798.6333   -4.7428   -3.6887   -1.7592   -0.0459    0.1659
 Low frequencies ---    0.3292   19.4504   33.0624
 ******    1 imaginary frequencies (negative Signs) ******
 Diagonal vibrational polarizability:
      193.2614558     302.6874239     613.4508963

                      1                      2                      3
                      A                      A                      A
 Frequencies --   -798.6333                19.3888                32.8855
 Red. masses --      7.3773                 4.0499                 1.0341
 Frc consts  --      2.7723                 0.0009                 0.0007
 IR Inten    --    720.9855                 9.5200                 0.1118

                      4                      5                      6
                      A                      A                      A
 Frequencies --     40.1759                57.3144                81.4988
 Red. masses --      6.5155                 4.8708                 2.7929
 Frc consts  --      0.0062                 0.0094                 0.0109
 IR Inten    --      0.5962                 1.1199                 3.6845

                      7                      8                      9
                      A                      A                      A
 Frequencies --     86.2371                93.7515                95.6703
 Red. masses --      3.3883                 2.5263                 1.5827
 Frc consts  --      0.0148                 0.0131                 0.0085
 IR Inten    --     27.4651                10.9128                 2.7306

                     10                     11                     12
                      A                      A                      A
 Frequencies --    103.8937               129.0073               136.1963
 Red. masses --      4.3065                 2.1112                 1.8537
 Frc consts  --      0.0274                 0.0207                 0.0203
 IR Inten    --      2.7149                 5.1022                 6.8069

                     13                     14                     15
                      A                      A                      A
 Frequencies --    158.2467               182.5027               195.6786
 Red. masses --      7.6573                 5.6741                 5.3112
 Frc consts  --      0.1130                 0.1113                 0.1198
 IR Inten    --      9.4450                 5.6103                 6.6039

                     16                     17                     18
                      A                      A                      A
 Frequencies --    231.2485               245.2161               256.7383
 Red. masses --      3.8357                 3.6136                 3.5330
 Frc consts  --      0.1209                 0.1280                 0.1372
 IR Inten    --      0.1609                 1.4804                 8.8491

                     19                     20                     21
                      A                      A                      A
 Frequencies --    290.5514               318.2478               345.9343
 Red. masses --      2.6290                 2.2851                 2.7553
 Frc consts  --      0.1308                 0.1364                 0.1943
 IR Inten    --      4.3769                18.5288                13.9693

                     22                     23                     24
                      A                      A                      A
 Frequencies --    364.0680               402.9014               420.8566
 Red. masses --      9.6468                 3.1467                 3.4201
 Frc consts  --      0.7534                 0.3010                 0.3569
 IR Inten    --     49.6461                15.8485                24.9685

                     25                     26                     27
                      A                      A                      A
 Frequencies --    436.9781               515.7788               538.5511
 Red. masses --      3.6659                 4.6804                 3.1924
 Frc consts  --      0.4124                 0.7336                 0.5455
 IR Inten    --      1.6619                 8.2820                 5.2347

                     28                     29                     30
                      A                      A                      A
 Frequencies --    546.1073               558.1026               564.6325
 Red. masses --      9.0274                 5.4192                 4.8514
 Frc consts  --      1.5862                 0.9945                 0.9113
 IR Inten    --      1.6131                76.7392                33.5183

                     31                     32                     33
                      A                      A                      A
 Frequencies --    635.0618               645.7580               675.4105
 Red. masses --      7.3519                 6.8624                 4.3743
 Frc consts  --      1.7469                 1.6860                 1.1757
 IR Inten    --     48.7465                36.0316                10.1334

                     34                     35                     36
                      A                      A                      A
 Frequencies --    706.4491               819.3477               843.3124
 Red. masses --      4.6515                 1.4056                 3.1552
 Frc consts  --      1.3678                 0.5560                 1.3221
 IR Inten    --     15.9038                20.1136                12.2102

                     37                     38                     39
                      A                      A                      A
 Frequencies --    848.9519               875.8282               931.2777
 Red. masses --      2.0368                 1.8789                 1.4263
 Frc consts  --      0.8649                 0.8492                 0.7288
 IR Inten    --     17.2371                 8.0264               187.4491

                     40                     41                     42
                      A                      A                      A
 Frequencies --    940.6582               945.0957               966.1853
 Red. masses --      1.2684                 1.4296                 1.8295
 Frc consts  --      0.6613                 0.7524                 1.0063
 IR Inten    --    259.3255                90.7910               167.5326

                     43                     44                     45
                      A                      A                      A
 Frequencies --    974.2104               985.7493               998.4751
 Red. masses --      1.4266                 1.4157                 1.6329
 Frc consts  --      0.7977                 0.8105                 0.9591
 IR Inten    --     23.9216                15.7728                10.2001

                     46                     47                     48
                      A                      A                      A
 Frequencies --   1020.6813              1027.6588              1047.0060
 Red. masses --      1.6373                 1.7035                 1.8176
 Frc consts  --      1.0050                 1.0600                 1.1739
 IR Inten    --    188.4453                95.0304                66.5477

                     49                     50                     51
                      A                      A                      A
 Frequencies --   1054.4628              1058.3673              1071.5585
 Red. masses --      1.5172                 1.2892                 1.5780
 Frc consts  --      0.9939                 0.8508                 1.0675
 IR Inten    --     87.6228                 7.0486                90.2612

                     52                     53                     54
                      A                      A                      A
 Frequencies --   1075.7135              1109.7548              1140.1047
 Red. masses --      2.2368                 2.2965                 1.2453
 Frc consts  --      1.5250                 1.6664                 0.9537
 IR Inten    --     66.3837               224.8669                31.8999

                     55                     56                     57
                      A                      A                      A
 Frequencies --   1170.9778              1179.8396              1183.0830
 Red. masses --      1.9818                 1.0828                 2.1900
 Frc consts  --      1.6011                 0.8881                 1.8061
 IR Inten    --    150.1372               105.8054               128.1599

                     58                     59                     60
                      A                      A                      A
 Frequencies --   1189.0569              1203.3585              1205.4716
 Red. masses --      1.0685                 1.0977                 1.7622
 Frc consts  --      0.8901                 0.9365                 1.5088
 IR Inten    --    107.7442               101.8550                28.4891

                     61                     62                     63
                      A                      A                      A
 Frequencies --   1218.4695              1219.4564              1227.2597
 Red. masses --      1.0834                 1.4505                 1.0453
 Frc consts  --      0.9477                 1.2709                 0.9276
 IR Inten    --    108.5085                15.1713                45.2063

                     64                     65                     66
                      A                      A                      A
 Frequencies --   1233.5517              1237.9826              1253.0530
 Red. masses --      1.4997                 1.4448                 1.1680
 Frc consts  --      1.3445                 1.3046                 1.0806
 IR Inten    --    171.0885               341.3797                 4.0657

                     67                     68                     69
                      A                      A                      A
 Frequencies --   1263.7777              1266.5435              1271.1863
 Red. masses --      1.3737                 1.6562                 1.5969
 Frc consts  --      1.2927                 1.5653                 1.5204
 IR Inten    --     77.7896                55.4292               257.7481

                     70                     71                     72
                      A                      A                      A
 Frequencies --   1280.6596              1294.3979              1312.7993
 Red. masses --      1.3867                 1.2326                 1.5732
 Frc consts  --      1.3400                 1.2167                 1.5975
 IR Inten    --      9.3618               192.3482               188.3845

                     73                     74                     75
                      A                      A                      A
 Frequencies --   1319.3529              1324.5702              1387.8701
 Red. masses --      1.3462                 1.2603                 5.0395
 Frc consts  --      1.3806                 1.3028                 5.7192
 IR Inten    --    146.1212                 5.3733                 6.0507

                     76                     77                     78
                      A                      A                      A
 Frequencies --   1399.3287              1437.7250              1582.1982
 Red. masses --      5.1706                 5.6303                 9.1547
 Frc consts  --      5.9653                 6.8569                13.5025
 IR Inten    --    325.5976               383.4323               147.8261

                     79                     80                     81
                      A                      A                      A
 Frequencies --   1621.4376              1753.4066              1787.6913
 Red. masses --      7.6584                12.8730                12.0399
 Frc consts  --     11.8628                23.3182                22.6703
 IR Inten    --    112.8526              1886.8711               522.8378

                     82                     83                     84
                      A                      A                      A
 Frequencies --   1838.6710              2620.6067              2627.5354
 Red. masses --     12.7289                 1.0865                 1.0868
 Frc consts  --     25.3542                 4.3962                 4.4209
 IR Inten    --    203.2171               242.6754               172.9755

                     85                     86                     87
                      A                      A                      A
 Frequencies --   2654.4804              2662.1212              2662.7604
 Red. masses --      1.0844                 1.0861                 1.0870
 Frc consts  --      4.5021                 4.5349                 4.5411
 IR Inten    --    113.6467                72.6596                88.2031

                     88                     89                     90
                      A                      A                      A
 Frequencies --   2670.4002              2677.7911              2694.0965
 Red. masses --      1.0860                 1.0821                 1.0679
 Frc consts  --      4.5630                 4.5716                 4.5667
 IR Inten    --    170.1922                63.6465                75.6017

                     91                     92                     93
                      A                      A                      A
 Frequencies --   2697.4106              2703.4147              2721.2062
 Red. masses --      1.0472                 1.0705                 1.0757
 Frc consts  --      4.4892                 4.6097                 4.6933
 IR Inten    --     87.6471                74.9671                88.8852

                     94                     95                     96
                      A                      A                      A
 Frequencies --   2724.0958              2748.1299              2757.2624
 Red. masses --      1.0754                 1.0730                 1.0287
 Frc consts  --      4.7017                 4.7744                 4.6080
 IR Inten    --    186.8233               208.1850                58.2068

                     97                     98                     99
                      A                      A                      A
 Frequencies --   2763.7964              2771.6628              2775.9281
 Red. masses --      1.0739                 1.0347                 1.0354
 Frc consts  --      4.8333                 4.6833                 4.7008
 IR Inten    --    174.4567               100.6650               140.3343

 - Thermochemistry -
 -------------------
 Temperature   298.150 Kelvin.  Pressure   1.00000 Atm.
 Atom     1 has atomic number  6 and mass  12.00000

 Molecular mass:   251.11576 amu.
 Principal axes and moments of inertia in atomic units:
                           1         2         3
     Eigenvalues --  2917.150935798.562447756.58341
           X            0.99944   0.03330   0.00313
           Y           -0.03333   0.99937   0.01221
           Z           -0.00272  -0.01231   0.99992
 This molecule is an asymmetric top.
 Rotational symmetry number  1.
 Warning -- assumption of classical behavior for rotation
           may cause significant error
 Rotational temperatures (Kelvin)      0.02969     0.01494     0.01117
 Rotational constants (GHZ):           0.61867     0.31124     0.23267
    1 imaginary frequencies ignored.
 Zero-point vibrational energy     678529.7 (Joules/Mol)
                                  162.17250 (Kcal/Mol)
 Warning -- explicit consideration of  29 degrees of freedom as
           vibrations may cause significant error
 Vibrational temperatures:     27.90    47.31    57.80    82.46   117.26
          (Kelvin)            124.08   134.89   137.65   149.48   185.61
                              195.96   227.68   262.58   281.54   332.71
                              352.81   369.39   418.04   457.89   497.72
                              523.81   579.68   605.52   628.71   742.09
                              774.85   785.73   802.98   812.38   913.71
                              929.10   971.76  1016.42  1178.86  1213.34
                             1221.45  1260.12  1339.90  1353.40  1359.78
                             1390.12  1401.67  1418.27  1436.58  1468.53
                             1478.57  1506.41  1517.13  1522.75  1541.73
                             1547.71  1596.69  1640.35  1684.77  1697.52
                             1702.19  1710.79  1731.36  1734.40  1753.10
                             1754.52  1765.75  1774.80  1781.18  1802.86
                             1818.29  1822.27  1828.95  1842.58  1862.35
                             1888.82  1898.25  1905.76  1996.83  2013.32
                             2068.56  2276.43  2332.88  2522.76  2572.09
                             2645.43  3770.46  3780.43  3819.20  3830.19
                             3831.11  3842.11  3852.74  3876.20  3880.97
                             3889.61  3915.20  3919.36  3953.94  3967.08
                             3976.48  3987.80  3993.94

 Zero-point correction=                           0.258438 (Hartree/Particle)
 Thermal correction to Energy=                    0.278115
 Thermal correction to Enthalpy=                  0.279060
 Thermal correction to Gibbs Free Energy=         0.208286
 Sum of electronic and zero-point Energies=              0.068484
 Sum of electronic and thermal Energies=                 0.088161
 Sum of electronic and thermal Enthalpies=               0.089105
 Sum of electronic and thermal Free Energies=            0.018332

                     E (Thermal)             CV                S
                      KCal/Mol        Cal/Mol-Kelvin    Cal/Mol-Kelvin
 Total                  174.520             70.661            148.955
 Electronic               0.000              0.000              0.000
 Translational            0.889              2.981             42.463
 Rotational               0.889              2.981             33.239
 Vibrational            172.743             64.700             73.253
 Vibration     1          0.593              1.986              6.696
 Vibration     2          0.594              1.983              5.647
 Vibration     3          0.594              1.981              5.250
 Vibration     4          0.596              1.975              4.548
 Vibration     5          0.600              1.962              3.854
 Vibration     6          0.601              1.959              3.744
 Vibration     7          0.603              1.954              3.580
 Vibration     8          0.603              1.952              3.541
 Vibration     9          0.605              1.946              3.380
 Vibration    10          0.611              1.924              2.961
 Vibration    11          0.614              1.917              2.857
 Vibration    12          0.621              1.893              2.571
 Vibration    13          0.630              1.864              2.303
 Vibration    14          0.636              1.846              2.173
 Vibration    15          0.653              1.793              1.869
 Vibration    16          0.660              1.771              1.765
 Vibration    17          0.666              1.751              1.684
 Vibration    18          0.687              1.691              1.471
 Vibration    19          0.705              1.639              1.319
 Vibration    20          0.724              1.584              1.185
 Vibration    21          0.738              1.546              1.105
 Vibration    22          0.768              1.464              0.952
 Vibration    23          0.783              1.425              0.889
 Vibration    24          0.797              1.390              0.836
 Vibration    25          0.871              1.215              0.620
 Vibration    26          0.894              1.165              0.568
 Vibration    27          0.901              1.148              0.552
 Vibration    28          0.914              1.122              0.528
 Vibration    29          0.920              1.108              0.515

 Normal termination of Gaussian 09 at Fri Jul 24 11:10:54 2020.
