 Gaussian 09, Revision D.01,
 Gaussian 09:  ES64L-G09RevD.01 24-Apr-2013

 ----------------------------------------------------------------------
 # freq pm6 scrf=(cpcm,solvent=toluene) geom=connectivity empiricaldisp
 ersion=gd3
 ----------------------------------------------------------------------

 -------------------
 Title Card Required
 -------------------
 Symbolic Z-matrix:
 Charge =  0 Multiplicity = 1

                         Standard orientation:
 ---------------------------------------------------------------------
 Center     Atomic      Atomic             Coordinates (Angstroms)
 Number     Number       Type             X           Y           Z
 ---------------------------------------------------------------------
      1          6           0       -2.425184    2.641312    0.275667
      2          6           0       -2.692473    1.282238    0.254460
      3          6           0       -1.675353    0.361635   -0.096551
      4          6           0       -0.387807    0.848848   -0.419680
      5          6           0       -0.138026    2.240702   -0.401517
      6          6           0       -1.142110    3.127166   -0.054608
      7          1           0       -3.209797    3.349102    0.546788
      8          1           0       -3.691684    0.926976    0.507155
      9          1           0        0.862545    2.592542   -0.666282
     10          1           0       -0.952809    4.199593   -0.035834
     11          6           0        0.681862   -0.088079   -0.795688
     12          6           0       -1.889046   -1.071547   -0.151250
     13          6           0        0.423059   -1.493281   -0.791032
     14          1           0        1.034598   -2.131333   -1.438931
     15          6           0       -0.921743   -1.950364   -0.515920
     16          1           0       -1.116447   -3.022319   -0.590125
     17          8           0        1.873107    0.356068   -0.990108
     18         17           0       -3.459572   -1.674330    0.248998
     19          6           0        3.052860   -0.094500    0.346721
     20          6           0        2.751022   -1.478023    0.439902
     21          1           0        3.430244   -2.174674   -0.051664
     22          6           0        4.299938    0.328448   -0.373783
     23          1           0        4.670897   -0.435443   -1.069812
     24          1           0        4.111399    1.230075   -0.980163
     25          1           0        5.114569    0.568073    0.322403
     26          6           0        2.570732    0.869248    1.395010
     27          1           0        1.543243    0.667431    1.728272
     28          1           0        3.212455    0.819768    2.286946
     29          1           0        2.584556    1.909236    1.039551
     30          6           0        1.500147   -1.939492    0.836151
     31          1           0        1.302392   -3.010218    0.862356
     32          1           0        0.884437   -1.379608    1.539938
 ---------------------------------------------------------------------

 SCF Done:  E(RPM6D3) =  0.182852046981E-01 A.U. after   23 cycles

 The electronic state is 1-A.
 Alpha  occ. eigenvalues --   -1.13263  -1.10868  -1.07501  -1.06105  -1.00168
 Alpha  occ. eigenvalues --   -0.97800  -0.96008  -0.94372  -0.91183  -0.89021
 Alpha  occ. eigenvalues --   -0.81978  -0.80749  -0.79845  -0.75551  -0.69015
 Alpha  occ. eigenvalues --   -0.65917  -0.64959  -0.62604  -0.60180  -0.59689
 Alpha  occ. eigenvalues --   -0.56934  -0.56636  -0.56000  -0.54181  -0.53922
 Alpha  occ. eigenvalues --   -0.52718  -0.51943  -0.50425  -0.50136  -0.49298
 Alpha  occ. eigenvalues --   -0.48630  -0.48161  -0.46951  -0.46266  -0.46251
 Alpha  occ. eigenvalues --   -0.45422  -0.44409  -0.41995  -0.40822  -0.39095
 Alpha  occ. eigenvalues --   -0.38318  -0.37205  -0.34009  -0.31144
 Alpha virt. eigenvalues --   -0.02854  -0.02157   0.01071   0.02422   0.02987
 Alpha virt. eigenvalues --    0.04131   0.07739   0.09851   0.12427   0.13023
 Alpha virt. eigenvalues --    0.13955   0.14118   0.14579   0.15209   0.15536

 Mulliken charges:
               1
     1  C   -0.089360
     2  C   -0.203629
     3  C    0.080195
     4  C   -0.173541
     5  C   -0.073968
     6  C   -0.194365
     7  H    0.151240
     8  H    0.170346
     9  H    0.164138
    10  H    0.159162
    11  C    0.432752
    12  C   -0.066596
    13  C   -0.359857
    14  H    0.190776
    15  C   -0.088105
    16  H    0.165616
    17  O   -0.572876
    18  Cl  -0.101192
    19  C    0.507068
    20  C   -0.464440
    21  H    0.176088
    22  C   -0.567719
    23  H    0.179179
    24  H    0.193352
    25  H    0.179679
    26  C   -0.572797
    27  H    0.182004
    28  H    0.181653
    29  H    0.185176
    30  C   -0.045466
    31  H    0.138352
    32  H    0.137134
 Sum of Mulliken charges =   0.00000

 Dipole moment (field-independent basis, Debye):
    X=              2.2883    Y=              0.6119    Z=              2.1189  Tot=              3.1782
 N-N= 6.580889776845D+02 E-N=-1.203247334307D+03  KE=-5.674336933613D+01
  Exact polarizability: 269.752 -15.810 214.676 -14.265   2.425  73.283
 Approx polarizability: 170.940  -1.351 150.561 -16.254   0.207  50.969
 PrsmSu:  requested number of processors reduced to:   1 ShMem   1 Linda.
 D2PCM: C-PCM CHGder 2nd derivatives, FixD1E=F FixD2E=F DoIter=F DoCFld=F I1PDM=0
 Calling FoFJK, ICntrl=    100127 FMM=F ISym2X=0 I1Cent= 0 IOpClX= 0 NMat=1 NMatS=1 NMatT=0.
 CoulSu:  requested number of processors reduced to:   2 ShMem   1 Linda.
 Full mass-weighted force constant matrix:
 Low frequencies --- -761.4134   -8.6461   -0.7664   -0.0318    0.1079    0.9999
 Low frequencies ---    5.5450   45.3466   54.0642
 ******    1 imaginary frequencies (negative Signs) ******

                      1                      2                      3
                      A                      A                      A
 Frequencies --   -761.4134                45.3100                54.0532
 Red. masses --      9.9428                 4.3507                 1.4923
 Frc consts  --      3.3962                 0.0053                 0.0026
 IR Inten    --    502.1882                 0.1491                 1.2310

                      4                      5                      6
                      A                      A                      A
 Frequencies --     60.7389                85.0310               107.0303
 Red. masses --      1.8683                 4.4492                 3.9250
 Frc consts  --      0.0041                 0.0190                 0.0265
 IR Inten    --      1.1527                 0.3361                 0.5844

                      7                      8                      9
                      A                      A                      A
 Frequencies --    121.3027               183.1767               189.4255
 Red. masses --      1.0336                 3.3342                 5.5909
 Frc consts  --      0.0090                 0.0659                 0.1182
 IR Inten    --      0.4916                 3.8568                62.2050

                     10                     11                     12
                      A                      A                      A
 Frequencies --    203.5483               222.2376               240.4580
 Red. masses --      4.5886                 8.3083                 3.7567
 Frc consts  --      0.1120                 0.2418                 0.1280
 IR Inten    --      5.4756                26.3312                67.7775

                     13                     14                     15
                      A                      A                      A
 Frequencies --    267.7218               308.9747               328.7909
 Red. masses --      3.1418                 3.8215                 6.6868
 Frc consts  --      0.1327                 0.2149                 0.4259
 IR Inten    --     27.8390                22.9914                56.9388

                     16                     17                     18
                      A                      A                      A
 Frequencies --    369.1122               379.8727               396.0390
 Red. masses --      3.6353                 4.2374                 2.6950
 Frc consts  --      0.2918                 0.3603                 0.2490
 IR Inten    --     18.9194                 2.6909                 2.3024

                     19                     20                     21
                      A                      A                      A
 Frequencies --    407.3599               432.7782               445.1577
 Red. masses --      4.0119                 2.7109                 2.6848
 Frc consts  --      0.3922                 0.2991                 0.3135
 IR Inten    --      4.8017                15.4825                 5.4795

                     22                     23                     24
                      A                      A                      A
 Frequencies --    477.1710               529.0553               539.1243
 Red. masses --      5.1239                 5.0148                 3.4519
 Frc consts  --      0.6874                 0.8270                 0.5911
 IR Inten    --      0.7214                 5.5448                 2.0395

                     25                     26                     27
                      A                      A                      A
 Frequencies --    544.1736               557.7151               657.8373
 Red. masses --      3.2391                 4.7590                 7.1258
 Frc consts  --      0.5651                 0.8721                 1.8169
 IR Inten    --     17.7554                 2.2617                19.1566

                     28                     29                     30
                      A                      A                      A
 Frequencies --    675.2958               754.8386               775.9621
 Red. masses --      4.3111                 6.6552                 4.2754
 Frc consts  --      1.1583                 2.2342                 1.5167
 IR Inten    --     18.9758                14.8330                48.7169

                     31                     32                     33
                      A                      A                      A
 Frequencies --    792.1019               809.3204               825.2171
 Red. masses --      2.8338                 1.3305                 1.9294
 Frc consts  --      1.0476                 0.5135                 0.7741
 IR Inten    --     30.5442                43.5651                63.4395

                     34                     35                     36
                      A                      A                      A
 Frequencies --    893.0520               904.0867               912.0690
 Red. masses --      2.0517                 1.5017                 1.3017
 Frc consts  --      0.9641                 0.7232                 0.6380
 IR Inten    --     15.1238                 0.9432                95.1277

                     37                     38                     39
                      A                      A                      A
 Frequencies --    918.2276               940.3536               952.4892
 Red. masses --      1.3860                 1.2657                 2.8091
 Frc consts  --      0.6885                 0.6594                 1.5015
 IR Inten    --     60.1581                 8.9711                87.8578

                     40                     41                     42
                      A                      A                      A
 Frequencies --    957.6658               962.6192               964.3890
 Red. masses --      1.4473                 1.4942                 1.3786
 Frc consts  --      0.7821                 0.8158                 0.7554
 IR Inten    --     17.8912                 6.3650                48.8711

                     43                     44                     45
                      A                      A                      A
 Frequencies --    986.5566               988.6021              1039.0426
 Red. masses --      1.6800                 1.4617                 1.4896
 Frc consts  --      0.9634                 0.8417                 0.9475
 IR Inten    --      1.5886                11.6058               189.7997

                     46                     47                     48
                      A                      A                      A
 Frequencies --   1056.5426              1102.5719              1111.8746
 Red. masses --      1.5911                 2.3649                 1.8783
 Frc consts  --      1.0464                 1.6939                 1.3681
 IR Inten    --    214.4533                39.6551                15.3227

                     49                     50                     51
                      A                      A                      A
 Frequencies --   1128.1059              1153.6472              1163.4359
 Red. masses --      1.4444                 1.3519                 1.4009
 Frc consts  --      1.0830                 1.0601                 1.1172
 IR Inten    --     34.5663                12.0776                20.6960

                     52                     53                     54
                      A                      A                      A
 Frequencies --   1190.5946              1208.1310              1215.8906
 Red. masses --      1.2778                 1.0595                 1.0789
 Frc consts  --      1.0672                 0.9111                 0.9398
 IR Inten    --      0.7684                25.2484               123.5291

                     55                     56                     57
                      A                      A                      A
 Frequencies --   1224.2271              1229.8565              1233.2936
 Red. masses --      1.0658                 1.2043                 1.3434
 Frc consts  --      0.9411                 1.0732                 1.2039
 IR Inten    --     26.3505                41.1877                83.0141

                     58                     59                     60
                      A                      A                      A
 Frequencies --   1246.5502              1283.3127              1288.5366
 Red. masses --      1.4138                 1.9645                 1.3995
 Frc consts  --      1.2943                 1.9062                 1.3691
 IR Inten    --     27.5877                27.0396                20.4810

                     61                     62                     63
                      A                      A                      A
 Frequencies --   1302.4740              1310.7584              1312.2451
 Red. masses --      1.3730                 1.2254                 1.7449
 Frc consts  --      1.3724                 1.2405                 1.7703
 IR Inten    --     38.4401               206.0569                74.0608

                     64                     65                     66
                      A                      A                      A
 Frequencies --   1324.5364              1349.8648              1394.2092
 Red. masses --      1.2547                 2.6289                 3.5096
 Frc consts  --      1.2969                 2.8223                 4.0194
 IR Inten    --    131.8904               114.0049                32.4153

                     67                     68                     69
                      A                      A                      A
 Frequencies --   1411.3469              1442.7036              1451.4391
 Red. masses --      6.6334                 5.6991                 5.2792
 Frc consts  --      7.7849                 6.9889                 6.5527
 IR Inten    --     46.1980                31.4217                57.3917

                     70                     71                     72
                      A                      A                      A
 Frequencies --   1480.6632              1517.1718              1592.0974
 Red. masses --      4.7958                 5.8741                10.0953
 Frc consts  --      6.1948                 7.9664                15.0768
 IR Inten    --      1.2541                68.1034               524.9401

                     73                     74                     75
                      A                      A                      A
 Frequencies --   1612.9251              1655.2003              1682.4309
 Red. masses --     10.8450                10.6182                10.3541
 Frc consts  --     16.6229                17.1397                17.2677
 IR Inten    --    178.6104                45.1840                68.3987

                     76                     77                     78
                      A                      A                      A
 Frequencies --   2679.8700              2680.1354              2685.6465
 Red. masses --      1.0850                 1.0865                 1.0865
 Frc consts  --      4.5908                 4.5981                 4.6173
 IR Inten    --     52.7595                74.1299               144.3337

                     79                     80                     81
                      A                      A                      A
 Frequencies --   2690.0525              2691.8983              2728.4765
 Red. masses --      1.0875                 1.0922                 1.0699
 Frc consts  --      4.6367                 4.6632                 4.6926
 IR Inten    --    116.8947                17.9348                91.6856

                     82                     83                     84
                      A                      A                      A
 Frequencies --   2734.1473              2740.0950              2742.0337
 Red. masses --      1.0716                 1.0702                 1.0718
 Frc consts  --      4.7198                 4.7344                 4.7480
 IR Inten    --    132.3234                 3.0390               207.3721

                     85                     86                     87
                      A                      A                      A
 Frequencies --   2747.0986              2748.3158              2757.0085
 Red. masses --      1.0543                 1.0706                 1.0727
 Frc consts  --      4.6878                 4.7644                 4.8039
 IR Inten    --    202.8295               237.1832               365.5126

                     88                     89                     90
                      A                      A                      A
 Frequencies --   2759.2083              2783.6360              2788.0335
 Red. masses --      1.0776                 1.0306                 1.0318
 Frc consts  --      4.8338                 4.7052                 4.7255
 IR Inten    --     82.2299                63.1216               106.3418

 - Thermochemistry -
 -------------------
 Temperature   298.150 Kelvin.  Pressure   1.00000 Atm.
 Atom     1 has atomic number  6 and mass  12.00000

 Molecular mass:   246.08114 amu.
 Principal axes and moments of inertia in atomic units:
                           1         2         3
     Eigenvalues --  2605.616265350.873867259.75349
           X            0.99973  -0.02323   0.00276
           Y            0.02320   0.99968   0.01032
           Z           -0.00300  -0.01025   0.99994
 This molecule is an asymmetric top.
 Rotational symmetry number  1.
 Warning -- assumption of classical behavior for rotation
           may cause significant error
 Rotational temperatures (Kelvin)      0.03324     0.01619     0.01193
 Rotational constants (GHZ):           0.69264     0.33728     0.24860
    1 imaginary frequencies ignored.
 Zero-point vibrational energy     627066.8 (Joules/Mol)
                                  149.87256 (Kcal/Mol)
 Warning -- explicit consideration of  25 degrees of freedom as
           vibrations may cause significant error
 Vibrational temperatures:     65.19    77.77    87.39   122.34   153.99
          (Kelvin)            174.53   263.55   272.54   292.86   319.75
                              345.96   385.19   444.55   473.06   531.07
                              546.55   569.81   586.10   622.67   640.48
                              686.54   761.19   775.68   782.94   802.43
                              946.48   971.60  1086.04  1116.43  1139.66
                             1164.43  1187.30  1284.90  1300.78  1312.26
                             1321.12  1352.96  1370.42  1377.87  1384.99
                             1387.54  1419.43  1422.38  1494.95  1520.13
                             1586.35  1599.74  1623.09  1659.84  1673.92
                             1713.00  1738.23  1749.39  1761.39  1769.49
                             1774.43  1793.51  1846.40  1853.91  1873.97
                             1885.89  1888.03  1905.71  1942.15  2005.95
                             2030.61  2075.73  2088.29  2130.34  2182.87
                             2290.67  2320.64  2381.46  2420.64  3855.73
                             3856.11  3864.04  3870.38  3873.04  3925.66
                             3933.82  3942.38  3945.17  3952.46  3954.21
                             3966.72  3969.88  4005.03  4011.35

 Zero-point correction=                           0.238837 (Hartree/Particle)
 Thermal correction to Energy=                    0.254759
 Thermal correction to Enthalpy=                  0.255703
 Thermal correction to Gibbs Free Energy=         0.195359
 Sum of electronic and zero-point Energies=              0.257122
 Sum of electronic and thermal Energies=                 0.273044
 Sum of electronic and thermal Enthalpies=               0.273988
 Sum of electronic and thermal Free Energies=            0.213644

                     E (Thermal)             CV                S
                      KCal/Mol        Cal/Mol-Kelvin    Cal/Mol-Kelvin
 Total                  159.863             61.563            127.004
 Electronic               0.000              0.000              0.000
 Translational            0.889              2.981             42.402
 Rotational               0.889              2.981             32.981
 Vibrational            158.086             55.601             51.621
 Vibration     1          0.595              1.979              5.012
 Vibration     2          0.596              1.976              4.663
 Vibration     3          0.597              1.973              4.433
 Vibration     4          0.601              1.960              3.771
 Vibration     5          0.606              1.944              3.322
 Vibration     6          0.609              1.931              3.080
 Vibration     7          0.631              1.863              2.296
 Vibration     8          0.633              1.854              2.233
 Vibration     9          0.639              1.835              2.101
 Vibration    10          0.648              1.807              1.941
 Vibration    11          0.658              1.778              1.799
 Vibration    12          0.673              1.732              1.611
 Vibration    13          0.698              1.657              1.368
 Vibration    14          0.712              1.618              1.266
 Vibration    15          0.741              1.536              1.083
 Vibration    16          0.750              1.513              1.040
 Vibration    17          0.763              1.479              0.977
 Vibration    18          0.772              1.454              0.936
 Vibration    19          0.794              1.399              0.850
 Vibration    20          0.805              1.372              0.811
 Vibration    21          0.834              1.301              0.718
 Vibration    22          0.884              1.186              0.589
 Vibration    23          0.894              1.164              0.567
 Vibration    24          0.899              1.152              0.556
 Vibration    25          0.913              1.123              0.528

 Normal termination of Gaussian 09 at Tue Aug 11 05:30:34 2020.
