 Gaussian 09, Revision D.01,
 Gaussian 09:  ES64L-G09RevD.01 24-Apr-2013

 ----------------------------------------------------------------------
 # opt freq pm6 scrf=(cpcm,solvent=toluene) geom=connectivity empirical
 dispersion=gd3
 ----------------------------------------------------------------------

 -------------------
 Title Card Required
 -------------------
 Symbolic Z-matrix:
 Charge =  0 Multiplicity = 1

 SCF Done:  E(RPM6D3) =  0.771610518318E-01 A.U. after   21 cycles
 SCF Done:  E(RPM6D3) =  0.234827432488E-01 A.U. after   16 cycles
 SCF Done:  E(RPM6D3) =  0.287807990795E-01 A.U. after   17 cycles
 SCF Done:  E(RPM6D3) =  0.122825353842E-01 A.U. after   13 cycles
 SCF Done:  E(RPM6D3) = -0.220972798321E-01 A.U. after   15 cycles
 SCF Done:  E(RPM6D3) = -0.356490933564E-01 A.U. after   16 cycles
 SCF Done:  E(RPM6D3) = -0.375140890852E-01 A.U. after   15 cycles
 SCF Done:  E(RPM6D3) = -0.366865377305E-01 A.U. after   16 cycles
 SCF Done:  E(RPM6D3) = -0.377604790002E-01 A.U. after   10 cycles
 SCF Done:  E(RPM6D3) = -0.378704311231E-01 A.U. after   15 cycles
 SCF Done:  E(RPM6D3) = -0.386445031897E-01 A.U. after   13 cycles
 SCF Done:  E(RPM6D3) = -0.386451114061E-01 A.U. after   12 cycles
 SCF Done:  E(RPM6D3) = -0.386454375232E-01 A.U. after   12 cycles
 SCF Done:  E(RPM6D3) = -0.386455911848E-01 A.U. after   12 cycles
 SCF Done:  E(RPM6D3) = -0.386456137692E-01 A.U. after    9 cycles
 SCF Done:  E(RPM6D3) = -0.386456244042E-01 A.U. after    9 cycles
 SCF Done:  E(RPM6D3) = -0.386456323033E-01 A.U. after   10 cycles
 SCF Done:  E(RPM6D3) = -0.386456386663E-01 A.U. after   10 cycles
 SCF Done:  E(RPM6D3) = -0.386456417974E-01 A.U. after    9 cycles
 Optimization completed.
    -- Stationary point found.
 Normal termination of Gaussian 09 at Mon Aug 10 22:46:54 2020.

 -------------------------------------------------------------
 #N Geom=AllCheck Guess=TCheck SCRF=Check GenChk RPM6/ZDO Freq
 -------------------------------------------------------------

 Structure from the checkpoint file:  "pr_claisen_PM6_toluene.chk"
 -------------------
 Title Card Required
 -------------------
 Charge =  0 Multiplicity = 1

                         Standard orientation:
 ---------------------------------------------------------------------
 Center     Atomic      Atomic             Coordinates (Angstroms)
 Number     Number       Type             X           Y           Z
 ---------------------------------------------------------------------
      1          6           0        4.190380   -1.081029    0.153498
      2          6           0        3.504651    0.133474    0.074020
      3          6           0        2.106262    0.146244   -0.044550
      4          6           0        1.402729   -1.078612   -0.081635
      5          6           0        2.105441   -2.291607   -0.001936
      6          6           0        3.494929   -2.294740    0.115695
      7          1           0        5.278427   -1.081496    0.245662
      8          1           0        4.074261    1.063244    0.106865
      9          1           0        1.547980   -3.232904   -0.033887
     10          1           0        4.036977   -3.238339    0.177470
     11          6           0       -0.078146   -1.119763   -0.203070
     12          6           0        1.329722    1.385614   -0.130422
     13          6           0       -0.854379    0.194483   -0.195787
     14          6           0       -0.009024    1.427249   -0.196263
     15          1           0       -0.564015    2.368284   -0.250784
     16          8           0       -0.678648   -2.173990   -0.314075
     17         17           0        2.216996    2.869903   -0.147701
     18          6           0       -4.157733    0.027124    0.064443
     19          6           0       -3.170041    0.759438    0.606652
     20          1           0       -3.293404    1.826215    0.781818
     21          6           0       -5.468657    0.651918   -0.304640
     22          1           0       -6.313031    0.098243    0.129228
     23          1           0       -5.559637    1.692160    0.032848
     24          1           0       -5.612859    0.653951   -1.394571
     25          6           0       -4.053910   -1.439531   -0.206467
     26          1           0       -3.013614   -1.775591   -0.355162
     27          1           0       -4.454861   -2.022230    0.635406
     28          1           0       -4.612966   -1.740254   -1.101213
     29          6           0       -1.835304    0.212651    1.007418
     30          1           0       -1.405973    0.808555    1.837997
     31          1           0       -1.945491   -0.814489    1.419320
     32          1           0       -1.463048    0.200736   -1.149212
 ---------------------------------------------------------------------

 SCF Done:  E(RPM6D3) = -0.386456418006E-01 A.U. after    2 cycles

 The electronic state is 1-A.
 Alpha  occ. eigenvalues --   -1.17551  -1.12355  -1.09079  -1.05635  -1.01326
 Alpha  occ. eigenvalues --   -0.98593  -0.96767  -0.93870  -0.90282  -0.89688
 Alpha  occ. eigenvalues --   -0.83537  -0.81851  -0.78852  -0.76095  -0.67251
 Alpha  occ. eigenvalues --   -0.66650  -0.65556  -0.62922  -0.59515  -0.58069
 Alpha  occ. eigenvalues --   -0.57272  -0.56866  -0.55735  -0.54763  -0.54471
 Alpha  occ. eigenvalues --   -0.54027  -0.52154  -0.51607  -0.50505  -0.49641
 Alpha  occ. eigenvalues --   -0.49138  -0.47793  -0.47396  -0.46702  -0.46303
 Alpha  occ. eigenvalues --   -0.45497  -0.44274  -0.43673  -0.41383  -0.39320
 Alpha  occ. eigenvalues --   -0.38280  -0.37726  -0.35270  -0.34527
 Alpha virt. eigenvalues --   -0.03877  -0.01741   0.02067   0.02335   0.02720
 Alpha virt. eigenvalues --    0.04497   0.08270   0.09279   0.11032   0.11770
 Alpha virt. eigenvalues --    0.13258   0.13937   0.14106   0.14355   0.15430

 Mulliken charges:
               1
     1  C   -0.059998
     2  C   -0.216837
     3  C    0.113338
     4  C   -0.248656
     5  C   -0.031445
     6  C   -0.206063
     7  H    0.154187
     8  H    0.175983
     9  H    0.165920
    10  H    0.165856
    11  C    0.551234
    12  C   -0.047510
    13  C   -0.244600
    14  C   -0.112888
    15  H    0.175932
    16  O   -0.527043
    17  Cl  -0.087901
    18  C    0.186842
    19  C   -0.329332
    20  H    0.156130
    21  C   -0.524091
    22  H    0.170195
    23  H    0.164932
    24  H    0.170663
    25  C   -0.530736
    26  H    0.186377
    27  H    0.171593
    28  H    0.166077
    29  C   -0.205129
    30  H    0.144238
    31  H    0.153805
    32  H    0.198929
 Sum of Mulliken charges =   0.00000

 Dipole moment (field-independent basis, Debye):
    X=              0.0503    Y=              0.4341    Z=              0.0850  Tot=              0.4452
 N-N= 6.268553348823D+02 E-N=-1.140928551157D+03  KE=-5.617247555662D+01
  Exact polarizability: 250.255  10.768 186.851  22.258   5.174  55.615
 Approx polarizability: 147.518  12.340 128.913  13.483   3.962  35.910
 PrsmSu:  requested number of processors reduced to:   1 ShMem   1 Linda.
 D2PCM: C-PCM CHGder 2nd derivatives, FixD1E=F FixD2E=F DoIter=F DoCFld=F I1PDM=0
 Calling FoFJK, ICntrl=    100127 FMM=F ISym2X=0 I1Cent= 0 IOpClX= 0 NMat=1 NMatS=1 NMatT=0.
 CoulSu:  requested number of processors reduced to:   2 ShMem   1 Linda.
 Full mass-weighted force constant matrix:
 Low frequencies ---   -3.9426   -0.1887   -0.0221    0.0594    3.3997    3.8516
 Low frequencies ---   11.6254   17.8192   43.9802

                      1                      2                      3
                      A                      A                      A
 Frequencies --     11.4832                17.7734                43.9775
 Red. masses --      5.9177                 3.6472                 2.6927
 Frc consts  --      0.0005                 0.0007                 0.0031
 IR Inten    --      3.5956                 0.3668                 0.2819

                      4                      5                      6
                      A                      A                      A
 Frequencies --     80.9150                83.9965                87.6418
 Red. masses --      1.1109                 2.5364                 2.9205
 Frc consts  --      0.0043                 0.0105                 0.0132
 IR Inten    --      0.6274                 0.6231                 0.5776

                      7                      8                      9
                      A                      A                      A
 Frequencies --     98.6033               103.3335               167.8214
 Red. masses --      2.2782                 2.0991                 4.8987
 Frc consts  --      0.0131                 0.0132                 0.0813
 IR Inten    --      1.6798                 0.0872                 0.3269

                     10                     11                     12
                      A                      A                      A
 Frequencies --    206.8547               218.0213               262.3502
 Red. masses --      4.1213                 7.9890                 3.4352
 Frc consts  --      0.1039                 0.2237                 0.1393
 IR Inten    --      3.3117                 1.3794                 0.6070

                     13                     14                     15
                      A                      A                      A
 Frequencies --    290.7187               314.8580               361.5822
 Red. masses --      3.5397                 5.3096                 4.1147
 Frc consts  --      0.1763                 0.3101                 0.3170
 IR Inten    --      4.2293                17.7497                 5.7253

                     16                     17                     18
                      A                      A                      A
 Frequencies --    372.8450               379.7113               404.4629
 Red. masses --      6.4098                 3.0647                 2.6954
 Frc consts  --      0.5250                 0.2603                 0.2598
 IR Inten    --      2.7181                 2.7405                 2.2106

                     19                     20                     21
                      A                      A                      A
 Frequencies --    432.1251               459.4269               474.9567
 Red. masses --      3.0053                 6.3142                 2.1850
 Frc consts  --      0.3306                 0.7852                 0.2904
 IR Inten    --      0.8135                 0.1418                10.7623

                     22                     23                     24
                      A                      A                      A
 Frequencies --    527.7183               531.6881               554.4650
 Red. masses --      4.4984                 3.1832                 3.4071
 Frc consts  --      0.7381                 0.5302                 0.6171
 IR Inten    --      3.6695                 8.8556                 4.8405

                     25                     26                     27
                      A                      A                      A
 Frequencies --    578.8793               630.8098               675.7468
 Red. masses --      4.5062                 4.9196                 4.4748
 Frc consts  --      0.8897                 1.1534                 1.2039
 IR Inten    --     19.3839                 8.2153                13.9116

                     28                     29                     30
                      A                      A                      A
 Frequencies --    740.5086               760.5750               798.0981
 Red. masses --      7.0065                 4.5846                 2.4956
 Frc consts  --      2.2637                 1.5626                 0.9366
 IR Inten    --     27.2640                25.1109                71.7015

                     31                     32                     33
                      A                      A                      A
 Frequencies --    813.2141               861.8072               874.8797
 Red. masses --      1.7213                 1.6223                 1.6816
 Frc consts  --      0.6707                 0.7099                 0.7583
 IR Inten    --     31.1087                24.4426                39.7556

                     34                     35                     36
                      A                      A                      A
 Frequencies --    905.3900               917.0578               945.4546
 Red. masses --      1.4974                 1.7348                 2.4849
 Frc consts  --      0.7232                 0.8596                 1.3087
 IR Inten    --      5.8685                31.7271                55.3039

                     37                     38                     39
                      A                      A                      A
 Frequencies --    948.4667               965.1825               966.8789
 Red. masses --      1.8023                 1.5522                 1.7158
 Frc consts  --      0.9553                 0.8520                 0.9451
 IR Inten    --     51.3596                 2.4426                11.5188

                     40                     41                     42
                      A                      A                      A
 Frequencies --    979.1870               989.8509              1023.0367
 Red. masses --      1.5280                 1.6944                 1.6075
 Frc consts  --      0.8632                 0.9782                 0.9912
 IR Inten    --     13.0063                 4.5839                59.4219

                     43                     44                     45
                      A                      A                      A
 Frequencies --   1045.9888              1063.7892              1091.7034
 Red. masses --      2.9683                 1.7109                 2.7564
 Frc consts  --      1.9134                 1.1407                 1.9355
 IR Inten    --     39.1854               129.5618                38.8460

                     46                     47                     48
                      A                      A                      A
 Frequencies --   1104.2433              1126.9519              1131.5513
 Red. masses --      2.7407                 1.5228                 1.2636
 Frc consts  --      1.9690                 1.1395                 0.9533
 IR Inten    --     40.9535                13.7940                12.7596

                     49                     50                     51
                      A                      A                      A
 Frequencies --   1151.8333              1160.8685              1170.5638
 Red. masses --      1.4336                 1.3532                 1.3586
 Frc consts  --      1.1206                 1.0744                 1.0968
 IR Inten    --     26.0461                61.5647                10.3908

                     52                     53                     54
                      A                      A                      A
 Frequencies --   1219.0903              1221.6859              1226.1567
 Red. masses --      1.3765                 1.0721                 1.1535
 Frc consts  --      1.2053                 0.9428                 1.0218
 IR Inten    --     59.5118                28.6704                48.7138

                     55                     56                     57
                      A                      A                      A
 Frequencies --   1231.9192              1235.4896              1238.7017
 Red. masses --      1.0637                 1.0591                 1.4262
 Frc consts  --      0.9512                 0.9525                 1.2894
 IR Inten    --     77.5666                63.4694                16.6918

                     58                     59                     60
                      A                      A                      A
 Frequencies --   1249.5499              1259.6001              1283.1237
 Red. masses --      1.8510                 1.8040                 1.2015
 Frc consts  --      1.7028                 1.6864                 1.1655
 IR Inten    --     55.8361                 1.0739                56.9264

                     61                     62                     63
                      A                      A                      A
 Frequencies --   1286.9266              1292.4710              1303.0081
 Red. masses --      1.6331                 1.3139                 1.9711
 Frc consts  --      1.5936                 1.2931                 1.9717
 IR Inten    --     71.3906                32.0757                43.2091

                     64                     65                     66
                      A                      A                      A
 Frequencies --   1323.0394              1334.6039              1336.8116
 Red. masses --      1.2374                 1.9887                 1.6257
 Frc consts  --      1.2761                 2.0870                 1.7117
 IR Inten    --    173.9075                78.7514                35.1133

                     67                     68                     69
                      A                      A                      A
 Frequencies --   1364.7475              1369.8870              1477.1948
 Red. masses --      2.7807                 2.9300                 4.7879
 Frc consts  --      3.0515                 3.2396                 6.1556
 IR Inten    --     62.9955                74.6125                21.3232

                     70                     71                     72
                      A                      A                      A
 Frequencies --   1522.6255              1630.1522              1636.4627
 Red. masses --      4.9862                11.1508                11.1073
 Frc consts  --      6.8109                17.4588                17.5255
 IR Inten    --      6.9193                51.2948                92.6720

                     73                     74                     75
                      A                      A                      A
 Frequencies --   1747.2756              1761.3768              1800.4387
 Red. masses --     12.5507                11.0253                 9.7188
 Frc consts  --     22.5756                20.1532                18.5617
 IR Inten    --    435.1234                75.3137               124.5938

                     76                     77                     78
                      A                      A                      A
 Frequencies --   2651.1525              2657.2165              2663.9620
 Red. masses --      1.0667                 1.0780                 1.0859
 Frc consts  --      4.4172                 4.4848                 4.5406
 IR Inten    --     95.2436                73.8341               143.8941

                     79                     80                     81
                      A                      A                      A
 Frequencies --   2686.4082              2689.6775              2691.3863
 Red. masses --      1.0850                 1.0856                 1.0872
 Frc consts  --      4.6134                 4.6272                 4.6398
 IR Inten    --     43.0808               119.8025                82.2452

                     82                     83                     84
                      A                      A                      A
 Frequencies --   2728.3998              2731.7346              2734.4410
 Red. masses --      1.0722                 1.0731                 1.0501
 Frc consts  --      4.7027                 4.7180                 4.6263
 IR Inten    --    145.6603               220.1451                52.4103

                     85                     86                     87
                      A                      A                      A
 Frequencies --   2736.3828              2744.5175              2755.8986
 Red. masses --      1.0703                 1.0719                 1.0722
 Frc consts  --      4.7217                 4.7573                 4.7980
 IR Inten    --     43.2155               236.2985               160.9199

                     88                     89                     90
                      A                      A                      A
 Frequencies --   2755.9991              2781.9317              2788.7346
 Red. masses --      1.0776                 1.0319                 1.0318
 Frc consts  --      4.8225                 4.7051                 4.7277
 IR Inten    --    214.8912                44.2663                59.4334

 - Thermochemistry -
 -------------------
 Temperature   298.150 Kelvin.  Pressure   1.00000 Atm.
 Atom     1 has atomic number  6 and mass  12.00000

 Molecular mass:   246.08114 amu.
 Principal axes and moments of inertia in atomic units:
                           1         2         3
     Eigenvalues --  2498.389097274.292729529.13649
           X            0.99984  -0.01733   0.00333
           Y            0.01732   0.99985   0.00162
           Z           -0.00336  -0.00157   0.99999
 This molecule is an asymmetric top.
 Rotational symmetry number  1.
 Warning -- assumption of classical behavior for rotation
           may cause significant error
 Rotational temperatures (Kelvin)      0.03467     0.01191     0.00909
 Rotational constants (GHZ):           0.72236     0.24810     0.18939
 Zero-point vibrational energy     634379.8 (Joules/Mol)
                                  151.62042 (Kcal/Mol)
 Warning -- explicit consideration of  25 degrees of freedom as
           vibrations may cause significant error
 Vibrational temperatures:     16.52    25.57    63.27   116.42   120.85
          (Kelvin)            126.10   141.87   148.67   241.46   297.62
                              313.68   377.46   418.28   453.01   520.24
                              536.44   546.32   581.93   621.73   661.01
                              683.36   759.27   764.98   797.75   832.88
                              907.59   972.25  1065.43  1094.30  1148.28
                             1170.03  1239.95  1258.76  1302.65  1319.44
                             1360.30  1364.63  1388.68  1391.12  1408.83
                             1424.17  1471.92  1504.94  1530.55  1570.72
                             1588.76  1621.43  1628.05  1657.23  1670.23
                             1684.18  1754.00  1757.73  1764.16  1772.45
                             1777.59  1782.21  1797.82  1812.28  1846.13
                             1851.60  1859.58  1874.74  1903.56  1920.19
                             1923.37  1963.56  1970.96  2125.35  2190.72
                             2345.42  2354.50  2513.94  2534.23  2590.43
                             3814.41  3823.14  3832.84  3865.14  3869.84
                             3872.30  3925.55  3930.35  3934.25  3937.04
                             3948.74  3965.12  3965.26  4002.57  4012.36

 Zero-point correction=                           0.241623 (Hartree/Particle)
 Thermal correction to Energy=                    0.258312
 Thermal correction to Enthalpy=                  0.259256
 Thermal correction to Gibbs Free Energy=         0.193895
 Sum of electronic and zero-point Energies=              0.202977
 Sum of electronic and thermal Energies=                 0.219667
 Sum of electronic and thermal Enthalpies=               0.220611
 Sum of electronic and thermal Free Energies=            0.155249

                     E (Thermal)             CV                S
                      KCal/Mol        Cal/Mol-Kelvin    Cal/Mol-Kelvin
 Total                  162.093             61.941            137.565
 Electronic               0.000              0.000              0.000
 Translational            0.889              2.981             42.402
 Rotational               0.889              2.981             33.515
 Vibrational            160.316             55.979             61.648
 Vibration     1          0.593              1.987              7.736
 Vibration     2          0.593              1.986              6.869
 Vibration     3          0.595              1.980              5.071
 Vibration     4          0.600              1.962              3.869
 Vibration     5          0.601              1.960              3.795
 Vibration     6          0.601              1.958              3.712
 Vibration     7          0.604              1.950              3.482
 Vibration     8          0.605              1.947              3.390
 Vibration     9          0.625              1.882              2.460
 Vibration    10          0.641              1.830              2.071
 Vibration    11          0.646              1.814              1.975
 Vibration    12          0.670              1.742              1.646
 Vibration    13          0.687              1.691              1.470
 Vibration    14          0.702              1.645              1.337
 Vibration    15          0.736              1.551              1.115
 Vibration    16          0.744              1.528              1.068
 Vibration    17          0.750              1.513              1.040
 Vibration    18          0.770              1.460              0.946
 Vibration    19          0.793              1.400              0.852
 Vibration    20          0.817              1.340              0.768
 Vibration    21          0.832              1.306              0.724
 Vibration    22          0.883              1.189              0.592
 Vibration    23          0.887              1.180              0.583
 Vibration    24          0.910              1.130              0.535
 Vibration    25          0.935              1.077              0.487

 Optimization completed.
    -- Stationary point found.
 Normal termination of Gaussian 09 at Mon Aug 10 22:47:04 2020.
