 Gaussian 09, Revision D.01,
 Gaussian 09:  ES64L-G09RevD.01 24-Apr-2013

 ----------------------------------------------------------------------
 # opt freq pm6 scrf=(cpcm,solvent=toluene) geom=connectivity empirical
 dispersion=gd3
 ----------------------------------------------------------------------

 -------------------
 Title Card Required
 -------------------
 Symbolic Z-matrix:
 Charge =  0 Multiplicity = 1

 SCF Done:  E(RPM6D3) =  0.854977833811E-01 A.U. after   22 cycles
 SCF Done:  E(RPM6D3) =  0.133693525403E-01 A.U. after   18 cycles
 SCF Done:  E(RPM6D3) = -0.140196795659E-01 A.U. after   18 cycles
 SCF Done:  E(RPM6D3) = -0.218293619795E-01 A.U. after   19 cycles
 SCF Done:  E(RPM6D3) = -0.232664903795E-01 A.U. after   18 cycles
 SCF Done:  E(RPM6D3) = -0.237003115384E-01 A.U. after   18 cycles
 SCF Done:  E(RPM6D3) = -0.240447376286E-01 A.U. after   17 cycles
 SCF Done:  E(RPM6D3) = -0.245529131894E-01 A.U. after   18 cycles
 SCF Done:  E(RPM6D3) = -0.251623972457E-01 A.U. after   17 cycles
 SCF Done:  E(RPM6D3) = -0.259508769075E-01 A.U. after   18 cycles
 SCF Done:  E(RPM6D3) = -0.262624874371E-01 A.U. after   16 cycles
 SCF Done:  E(RPM6D3) = -0.263279404116E-01 A.U. after   17 cycles
 SCF Done:  E(RPM6D3) = -0.263582482322E-01 A.U. after   16 cycles
 SCF Done:  E(RPM6D3) = -0.263805409625E-01 A.U. after   16 cycles
 SCF Done:  E(RPM6D3) = -0.263887027241E-01 A.U. after   14 cycles
 SCF Done:  E(RPM6D3) = -0.264031617564E-01 A.U. after   13 cycles
 SCF Done:  E(RPM6D3) = -0.264089884852E-01 A.U. after   15 cycles
 SCF Done:  E(RPM6D3) = -0.264092637698E-01 A.U. after   13 cycles
 SCF Done:  E(RPM6D3) = -0.264092461144E-01 A.U. after   11 cycles
 Optimization completed.
    -- Stationary point found.
 Normal termination of Gaussian 09 at Mon Aug 10 22:46:57 2020.

 -------------------------------------------------------------
 #N Geom=AllCheck Guess=TCheck SCRF=Check GenChk RPM6/ZDO Freq
 -------------------------------------------------------------

 Structure from the checkpoint file:  "sm_claisen_PM6_toluene.chk"
 -------------------
 Title Card Required
 -------------------
 Charge =  0 Multiplicity = 1

                         Standard orientation:
 ---------------------------------------------------------------------
 Center     Atomic      Atomic             Coordinates (Angstroms)
 Number     Number       Type             X           Y           Z
 ---------------------------------------------------------------------
      1          6           0        2.816222    2.502575   -0.127767
      2          6           0        3.003456    1.140966   -0.076570
      3          6           0        1.883446    0.260984    0.019789
      4          6           0        0.579305    0.818923    0.062051
      5          6           0        0.412825    2.233795    0.006584
      6          6           0        1.507964    3.058602   -0.086300
      7          1           0        3.670742    3.176634   -0.201119
      8          1           0        4.011160    0.726264   -0.109505
      9          1           0       -0.603237    2.634642    0.040191
     10          1           0        1.391934    4.140609   -0.129084
     11          6           0       -0.555601   -0.075721    0.160226
     12          6           0        2.003112   -1.165566    0.075910
     13          6           0       -0.394838   -1.445321    0.210928
     14          1           0       -1.245076   -2.120200    0.278796
     15          6           0        0.911559   -1.993475    0.168046
     16          1           0        1.026663   -3.078611    0.208799
     17          8           0       -1.733947    0.608175    0.188700
     18         17           0        3.578051   -1.872882    0.023200
     19          6           0       -3.054591   -0.065670    0.288355
     20          6           0       -3.289306   -0.979808   -0.891617
     21          1           0       -3.976604   -1.803370   -0.687751
     22          6           0       -3.136630   -0.786404    1.627531
     23          1           0       -4.175502   -0.992465    1.913043
     24          1           0       -2.604202   -1.746696    1.625219
     25          1           0       -2.694550   -0.181288    2.430981
     26          6           0       -3.964805    1.161383    0.220527
     27          1           0       -3.725415    1.781730   -0.654358
     28          1           0       -5.018930    0.871428    0.143986
     29          1           0       -3.852476    1.800046    1.105203
     30          6           0       -2.748266   -0.798030   -2.092892
     31          1           0       -2.938439   -1.450049   -2.934822
     32          1           0       -2.064472    0.011518   -2.322392
 ---------------------------------------------------------------------

 SCF Done:  E(RPM6D3) = -0.264092461138E-01 A.U. after    2 cycles

 The electronic state is 1-A.
 Alpha  occ. eigenvalues --   -1.13080  -1.11876  -1.07545  -1.06263  -0.99975
 Alpha  occ. eigenvalues --   -0.97671  -0.95833  -0.95478  -0.92441  -0.89480
 Alpha  occ. eigenvalues --   -0.82211  -0.81181  -0.79317  -0.77467  -0.71682
 Alpha  occ. eigenvalues --   -0.65967  -0.65160  -0.63230  -0.61253  -0.59991
 Alpha  occ. eigenvalues --   -0.57889  -0.56016  -0.54817  -0.54237  -0.54148
 Alpha  occ. eigenvalues --   -0.53362  -0.52247  -0.51086  -0.50483  -0.49437
 Alpha  occ. eigenvalues --   -0.49008  -0.48642  -0.47468  -0.46325  -0.46001
 Alpha  occ. eigenvalues --   -0.44502  -0.44256  -0.43116  -0.40440  -0.40338
 Alpha  occ. eigenvalues --   -0.39284  -0.37506  -0.35774  -0.31410
 Alpha virt. eigenvalues --   -0.02103  -0.01232   0.02262   0.02526   0.03440
 Alpha virt. eigenvalues --    0.05121   0.05814   0.09655   0.12079   0.12990
 Alpha virt. eigenvalues --    0.13094   0.13450   0.13621   0.14790   0.15512

 Mulliken charges:
               1
     1  C   -0.090110
     2  C   -0.205330
     3  C    0.092319
     4  C   -0.137470
     5  C   -0.082633
     6  C   -0.193657
     7  H    0.150936
     8  H    0.170352
     9  H    0.163995
    10  H    0.158631
    11  C    0.360160
    12  C   -0.104365
    13  C   -0.392374
    14  H    0.187242
    15  C   -0.038738
    16  H    0.161488
    17  O   -0.457043
    18  Cl  -0.100325
    19  C    0.451153
    20  C   -0.250886
    21  H    0.162159
    22  C   -0.582744
    23  H    0.179397
    24  H    0.178280
    25  H    0.184663
    26  C   -0.544371
    27  H    0.180619
    28  H    0.176073
    29  H    0.176825
    30  C   -0.264879
    31  H    0.151821
    32  H    0.158813
 Sum of Mulliken charges =   0.00000

 Dipole moment (field-independent basis, Debye):
    X=             -4.2401    Y=              0.5592    Z=              0.1962  Tot=              4.2813
 N-N= 6.449900515988D+02 E-N=-1.177019863097D+03  KE=-5.657087262810D+01
  Exact polarizability: 230.080   4.308 203.037 -15.368  -5.193  74.581
 Approx polarizability: 150.428   3.090 143.466 -12.153  -5.165  45.705
 PrsmSu:  requested number of processors reduced to:   1 ShMem   1 Linda.
 D2PCM: C-PCM CHGder 2nd derivatives, FixD1E=F FixD2E=F DoIter=F DoCFld=F I1PDM=0
 Calling FoFJK, ICntrl=    100127 FMM=F ISym2X=0 I1Cent= 0 IOpClX= 0 NMat=1 NMatS=1 NMatT=0.
 CoulSu:  requested number of processors reduced to:   2 ShMem   1 Linda.
 Full mass-weighted force constant matrix:
 Low frequencies ---   -1.3189   -0.1470   -0.0760    0.1656    3.6276    6.1159
 Low frequencies ---   25.3176   40.7728   75.5491

                      1                      2                      3
                      A                      A                      A
 Frequencies --     25.3102                40.7320                75.5469
 Red. masses --      4.0992                 4.4443                 1.9646
 Frc consts  --      0.0015                 0.0043                 0.0066
 IR Inten    --      0.9080                 0.0111                 0.5171

                      4                      5                      6
                      A                      A                      A
 Frequencies --     93.2669                97.1922               104.1912
 Red. masses --      1.1165                 3.8796                 4.0114
 Frc consts  --      0.0057                 0.0216                 0.0257
 IR Inten    --      0.0540                 0.5203                 0.7961

                      7                      8                      9
                      A                      A                      A
 Frequencies --    112.2955               151.5096               168.7237
 Red. masses --      3.6267                 1.1161                 4.0891
 Frc consts  --      0.0269                 0.0151                 0.0686
 IR Inten    --      2.0862                 0.0600                 2.6919

                     10                     11                     12
                      A                      A                      A
 Frequencies --    183.4429               213.4387               256.4196
 Red. masses --      4.0002                 6.6806                 3.7705
 Frc consts  --      0.0793                 0.1793                 0.1461
 IR Inten    --      0.6808                 1.0822                 1.0216

                     13                     14                     15
                      A                      A                      A
 Frequencies --    279.0494               302.6776               312.3481
 Red. masses --      3.5857                 2.4143                 4.1058
 Frc consts  --      0.1645                 0.1303                 0.2360
 IR Inten    --      2.0810                 0.7493                 2.3765

                     16                     17                     18
                      A                      A                      A
 Frequencies --    360.3468               375.0446               409.2673
 Red. masses --      2.8941                 2.8100                 3.7036
 Frc consts  --      0.2214                 0.2329                 0.3655
 IR Inten    --      0.3705                 6.4722                 2.3174

                     19                     20                     21
                      A                      A                      A
 Frequencies --    418.9175               430.4686               465.6306
 Red. masses --      2.8049                 3.5274                 5.0873
 Frc consts  --      0.2900                 0.3851                 0.6499
 IR Inten    --      1.8211                 1.5256                 1.8166

                     22                     23                     24
                      A                      A                      A
 Frequencies --    515.4671               536.3976               538.4596
 Red. masses --      5.1078                 3.5524                 3.3425
 Frc consts  --      0.7996                 0.6022                 0.5710
 IR Inten    --      1.4935                 2.5740                 2.6351

                     25                     26                     27
                      A                      A                      A
 Frequencies --    585.3768               595.8915               646.0671
 Red. masses --      3.5323                 3.6448                 2.2651
 Frc consts  --      0.7131                 0.7625                 0.5571
 IR Inten    --      2.7780                 9.0020                 2.1030

                     28                     29                     30
                      A                      A                      A
 Frequencies --    673.1376               745.4246               756.0077
 Red. masses --      4.1424                 3.7671                 6.8373
 Frc consts  --      1.1059                 1.2333                 2.3024
 IR Inten    --     34.9132                 8.2463                 3.8163

                     31                     32                     33
                      A                      A                      A
 Frequencies --    795.3879               806.0773               841.4388
 Red. masses --      5.1338                 1.2831                 1.4131
 Frc consts  --      1.9136                 0.4912                 0.5895
 IR Inten    --      0.2257                90.6015               117.2572

                     34                     35                     36
                      A                      A                      A
 Frequencies --    847.2979               876.2988               900.4686
 Red. masses --      2.8263                 2.7137                 1.5078
 Frc consts  --      1.1955                 1.2278                 0.7203
 IR Inten    --      3.0995                44.0643                 4.2356

                     37                     38                     39
                      A                      A                      A
 Frequencies --    943.9514               944.8085               950.8970
 Red. masses --      1.3957                 1.3862                 1.5058
 Frc consts  --      0.7327                 0.7291                 0.8022
 IR Inten    --      3.0873                 1.7852                 5.8294

                     40                     41                     42
                      A                      A                      A
 Frequencies --    959.9637               962.9745               964.5056
 Red. masses --      1.4933                 4.2346                 1.6518
 Frc consts  --      0.8108                 2.3136                 0.9053
 IR Inten    --      2.3224               177.8230                20.4120

                     43                     44                     45
                      A                      A                      A
 Frequencies --    973.9965               984.8643              1022.4347
 Red. masses --      1.3147                 1.6781                 1.4653
 Frc consts  --      0.7348                 0.9590                 0.9025
 IR Inten    --      5.0093                 2.1962               120.7767

                     46                     47                     48
                      A                      A                      A
 Frequencies --   1053.5488              1103.6859              1110.2096
 Red. masses --      1.3405                 4.5305                 2.1775
 Frc consts  --      0.8766                 3.2516                 1.5813
 IR Inten    --     51.8498               116.0834               112.0008

                     49                     50                     51
                      A                      A                      A
 Frequencies --   1148.6801              1152.8757              1181.0164
 Red. masses --      2.3977                 1.5852                 1.2984
 Frc consts  --      1.8640                 1.2414                 1.0670
 IR Inten    --    666.8950                90.2731                 3.0811

                     52                     53                     54
                      A                      A                      A
 Frequencies --   1207.6901              1213.9409              1219.3909
 Red. masses --      1.2899                 1.4566                 1.1030
 Frc consts  --      1.1085                 1.2647                 0.9663
 IR Inten    --     26.6960                25.7704                70.6026

                     55                     56                     57
                      A                      A                      A
 Frequencies --   1225.0842              1232.1612              1236.2783
 Red. masses --      1.0914                 1.0640                 1.0784
 Frc consts  --      0.9651                 0.9517                 0.9711
 IR Inten    --    115.6442                29.4758               130.6342

                     58                     59                     60
                      A                      A                      A
 Frequencies --   1241.9388              1268.4346              1279.7410
 Red. masses --      1.8263                 1.7954                 2.6094
 Frc consts  --      1.6596                 1.7020                 2.5179
 IR Inten    --    100.5492                40.5912                69.4057

                     61                     62                     63
                      A                      A                      A
 Frequencies --   1289.7345              1292.7749              1317.0964
 Red. masses --      1.2786                 1.6340                 1.2188
 Frc consts  --      1.2531                 1.6090                 1.2457
 IR Inten    --      7.4446               143.5104                53.4355

                     64                     65                     66
                      A                      A                      A
 Frequencies --   1320.1058              1335.8189              1361.5465
 Red. masses --      1.1824                 1.3533                 3.1888
 Frc consts  --      1.2140                 1.4228                 3.4829
 IR Inten    --    107.9839                33.9664                94.4073

                     67                     68                     69
                      A                      A                      A
 Frequencies --   1384.5478              1421.5223              1461.9158
 Red. masses --      4.7007                 2.8691                 6.3513
 Frc consts  --      5.3092                 3.4159                 7.9976
 IR Inten    --    115.8465               167.7200                58.2971

                     70                     71                     72
                      A                      A                      A
 Frequencies --   1489.6618              1546.0143              1621.2916
 Red. masses --      5.5994                 8.5216                11.1665
 Frc consts  --      7.3210                12.0005                17.2937
 IR Inten    --    126.3534                44.4962               123.2502

                     73                     74                     75
                      A                      A                      A
 Frequencies --   1673.4342              1676.7165              1790.4712
 Red. masses --     10.6853                10.0498                 8.8455
 Frc consts  --     17.6302                16.6466                16.7074
 IR Inten    --    148.5549                40.7416                 7.4459

                     76                     77                     78
                      A                      A                      A
 Frequencies --   2679.2530              2687.9766              2688.8485
 Red. masses --      1.0872                 1.0868                 1.0874
 Frc consts  --      4.5981                 4.6266                 4.6319
 IR Inten    --     81.2443                74.9827                73.8198

                     79                     80                     81
                      A                      A                      A
 Frequencies --   2693.1539              2713.4195              2734.6555
 Red. masses --      1.0885                 1.0867                 1.0717
 Frc consts  --      4.6516                 4.7142                 4.7218
 IR Inten    --    155.5096                30.3970               150.4237

                     82                     83                     84
                      A                      A                      A
 Frequencies --   2740.0698              2740.7604              2746.5144
 Red. masses --      1.0704                 1.0703                 1.0807
 Frc consts  --      4.7351                 4.7370                 4.8031
 IR Inten    --     17.2970                79.2737               169.8731

                     85                     86                     87
                      A                      A                      A
 Frequencies --   2748.8001              2751.2575              2759.6721
 Red. masses --      1.0723                 1.0744                 1.0784
 Frc consts  --      4.7738                 4.7915                 4.8388
 IR Inten    --    196.6676               433.2881               137.9501

                     88                     89                     90
                      A                      A                      A
 Frequencies --   2776.7363              2785.8968              2790.5239
 Red. masses --      1.0549                 1.0306                 1.0316
 Frc consts  --      4.7922                 4.7129                 4.7329
 IR Inten    --    137.2664                52.9870                57.8732

 - Thermochemistry -
 -------------------
 Temperature   298.150 Kelvin.  Pressure   1.00000 Atm.
 Atom     1 has atomic number  6 and mass  12.00000

 Molecular mass:   246.08114 amu.
 Principal axes and moments of inertia in atomic units:
                           1         2         3
     Eigenvalues --  2584.501066256.840687938.17708
           X            0.99966   0.02586  -0.00457
           Y           -0.02588   0.99966  -0.00254
           Z            0.00450   0.00265   0.99999
 This molecule is an asymmetric top.
 Rotational symmetry number  1.
 Warning -- assumption of classical behavior for rotation
           may cause significant error
 Rotational temperatures (Kelvin)      0.03351     0.01384     0.01091
 Rotational constants (GHZ):           0.69829     0.28844     0.22735
 Zero-point vibrational energy     628866.6 (Joules/Mol)
                                  150.30272 (Kcal/Mol)
 Warning -- explicit consideration of  26 degrees of freedom as
           vibrations may cause significant error
 Vibrational temperatures:     36.42    58.60   108.70   134.19   139.84
          (Kelvin)            149.91   161.57   217.99   242.76   263.93
                              307.09   368.93   401.49   435.49   449.40
                              518.46   539.60   588.84   602.73   619.35
                              669.94   741.64   771.76   774.72   842.23
                              857.35   929.55   968.49  1072.50  1087.73
                             1144.38  1159.76  1210.64  1219.07  1260.80
                             1295.57  1358.13  1359.37  1368.13  1381.17
                             1385.50  1387.71  1401.36  1417.00  1471.05
                             1515.82  1587.96  1597.34  1652.69  1658.73
                             1699.22  1737.59  1746.59  1754.43  1762.62
                             1772.80  1778.73  1786.87  1824.99  1841.26
                             1855.64  1860.01  1895.01  1899.34  1921.94
                             1958.96  1992.05  2045.25  2103.37  2143.29
                             2224.37  2332.67  2407.70  2412.42  2576.09
                             3854.84  3867.39  3868.65  3874.84  3904.00
                             3934.55  3942.34  3943.34  3951.62  3954.91
                             3958.44  3970.55  3995.10  4008.28  4014.94

 Zero-point correction=                           0.239523 (Hartree/Particle)
 Thermal correction to Energy=                    0.256275
 Thermal correction to Enthalpy=                  0.257219
 Thermal correction to Gibbs Free Energy=         0.194237
 Sum of electronic and zero-point Energies=              0.213113
 Sum of electronic and thermal Energies=                 0.229866
 Sum of electronic and thermal Enthalpies=               0.230810
 Sum of electronic and thermal Free Energies=            0.167828

                     E (Thermal)             CV                S
                      KCal/Mol        Cal/Mol-Kelvin    Cal/Mol-Kelvin
 Total                  160.815             63.434            132.557
 Electronic               0.000              0.000              0.000
 Translational            0.889              2.981             42.402
 Rotational               0.889              2.981             33.217
 Vibrational            159.038             57.473             56.937
 Vibration     1          0.593              1.985              6.167
 Vibration     2          0.594              1.981              5.223
 Vibration     3          0.599              1.965              4.003
 Vibration     4          0.602              1.954              3.590
 Vibration     5          0.603              1.951              3.510
 Vibration     6          0.605              1.946              3.374
 Vibration     7          0.607              1.939              3.229
 Vibration     8          0.619              1.901              2.653
 Vibration     9          0.625              1.881              2.450
 Vibration    10          0.631              1.862              2.293
 Vibration    11          0.644              1.820              2.014
 Vibration    12          0.666              1.752              1.686
 Vibration    13          0.679              1.712              1.539
 Vibration    14          0.694              1.669              1.402
 Vibration    15          0.701              1.650              1.350
 Vibration    16          0.735              1.554              1.121
 Vibration    17          0.746              1.523              1.059
 Vibration    18          0.774              1.450              0.929
 Vibration    19          0.782              1.429              0.896
 Vibration    20          0.792              1.404              0.857
 Vibration    21          0.823              1.326              0.750
 Vibration    22          0.871              1.216              0.621
 Vibration    23          0.891              1.170              0.573
 Vibration    24          0.893              1.165              0.569
 Vibration    25          0.942              1.063              0.476
 Vibration    26          0.954              1.041              0.457

 Optimization completed.
    -- Stationary point found.
 Normal termination of Gaussian 09 at Mon Aug 10 22:47:08 2020.
