 Gaussian 09, Revision D.01,
 Gaussian 09:  ES64L-G09RevD.01 24-Apr-2013

 ----------------------------------------------------------------------
 # opt=qst3 pm6 scrf=(cpcm,solvent=toluene) geom=connectivity empirical
 dispersion=gd3
 ----------------------------------------------------------------------

 -------------------
 Title Card Required
 -------------------
 Symbolic Z-matrix:
 Charge =  0 Multiplicity = 1

 -------------------
 Title Card Required
 -------------------
 Symbolic Z-matrix:
 Charge =  0 Multiplicity = 1

 -------------------
 Title Card Required
 -------------------
 Symbolic Z-matrix:
 Charge =  0 Multiplicity = 1

 SCF Done:  E(RPM6D3) =  0.144783091317E-01 A.U. after   22 cycles
 SCF Done:  E(RPM6D3) =  0.234089801007E-01 A.U. after   19 cycles
 SCF Done:  E(RPM6D3) =  0.312909627129E-01 A.U. after   19 cycles
 SCF Done:  E(RPM6D3) =  0.345476142091E-01 A.U. after   19 cycles
 SCF Done:  E(RPM6D3) =  0.334915139100E-01 A.U. after   18 cycles
 SCF Done:  E(RPM6D3) =  0.270685641142E-01 A.U. after   18 cycles
 SCF Done:  E(RPM6D3) =  0.220138992152E-01 A.U. after   18 cycles
 SCF Done:  E(RPM6D3) =  0.247313527349E-01 A.U. after   18 cycles
 SCF Done:  E(RPM6D3) =  0.212531965125E-01 A.U. after   18 cycles
 SCF Done:  E(RPM6D3) =  0.201970591937E-01 A.U. after   18 cycles
 SCF Done:  E(RPM6D3) =  0.184516864950E-01 A.U. after   17 cycles
 SCF Done:  E(RPM6D3) =  0.184612628647E-01 A.U. after   17 cycles
 SCF Done:  E(RPM6D3) =  0.183881122734E-01 A.U. after   16 cycles
 SCF Done:  E(RPM6D3) =  0.183388571913E-01 A.U. after   17 cycles
 SCF Done:  E(RPM6D3) =  0.183097091175E-01 A.U. after   17 cycles
 SCF Done:  E(RPM6D3) =  0.182859830425E-01 A.U. after   16 cycles
 SCF Done:  E(RPM6D3) =  0.182853798143E-01 A.U. after   11 cycles
 SCF Done:  E(RPM6D3) =  0.182852164593E-01 A.U. after   13 cycles
 SCF Done:  E(RPM6D3) =  0.182852041005E-01 A.U. after   10 cycles
 SCF Done:  E(RPM6D3) =  0.182852046298E-01 A.U. after   10 cycles
 Optimization completed.
    -- Stationary point found.

                         Standard orientation:
 ---------------------------------------------------------------------
 Center     Atomic      Atomic             Coordinates (Angstroms)
 Number     Number       Type             X           Y           Z
 ---------------------------------------------------------------------
      1          6           0       -2.425184    2.641312    0.275667
      2          6           0       -2.692473    1.282238    0.254460
      3          6           0       -1.675353    0.361635   -0.096551
      4          6           0       -0.387807    0.848848   -0.419680
      5          6           0       -0.138026    2.240702   -0.401517
      6          6           0       -1.142110    3.127166   -0.054608
      7          1           0       -3.209798    3.349101    0.546788
      8          1           0       -3.691684    0.926975    0.507155
      9          1           0        0.862545    2.592542   -0.666282
     10          1           0       -0.952810    4.199593   -0.035834
     11          6           0        0.681862   -0.088079   -0.795688
     12          6           0       -1.889046   -1.071547   -0.151250
     13          6           0        0.423059   -1.493281   -0.791032
     14          1           0        1.034598   -2.131333   -1.438931
     15          6           0       -0.921743   -1.950364   -0.515920
     16          1           0       -1.116447   -3.022319   -0.590125
     17          8           0        1.873107    0.356068   -0.990108
     18         17           0       -3.459572   -1.674331    0.248998
     19          6           0        3.052860   -0.094500    0.346721
     20          6           0        2.751022   -1.478023    0.439902
     21          1           0        3.430244   -2.174674   -0.051664
     22          6           0        4.299938    0.328449   -0.373783
     23          1           0        4.670897   -0.435442   -1.069812
     24          1           0        4.111399    1.230076   -0.980163
     25          1           0        5.114569    0.568074    0.322403
     26          6           0        2.570732    0.869248    1.395010
     27          1           0        1.543243    0.667431    1.728272
     28          1           0        3.212455    0.819768    2.286946
     29          1           0        2.584556    1.909236    1.039551
     30          6           0        1.500147   -1.939492    0.836151
     31          1           0        1.302392   -3.010218    0.862356
     32          1           0        0.884437   -1.379608    1.539938
 ---------------------------------------------------------------------

 The electronic state is 1-A.
 Alpha  occ. eigenvalues --   -1.13263  -1.10868  -1.07501  -1.06105  -1.00168
 Alpha  occ. eigenvalues --   -0.97800  -0.96008  -0.94372  -0.91183  -0.89021
 Alpha  occ. eigenvalues --   -0.81978  -0.80749  -0.79845  -0.75551  -0.69015
 Alpha  occ. eigenvalues --   -0.65917  -0.64959  -0.62604  -0.60180  -0.59689
 Alpha  occ. eigenvalues --   -0.56934  -0.56636  -0.56000  -0.54181  -0.53922
 Alpha  occ. eigenvalues --   -0.52718  -0.51943  -0.50425  -0.50136  -0.49298
 Alpha  occ. eigenvalues --   -0.48630  -0.48161  -0.46951  -0.46266  -0.46251
 Alpha  occ. eigenvalues --   -0.45422  -0.44409  -0.41995  -0.40822  -0.39095
 Alpha  occ. eigenvalues --   -0.38318  -0.37205  -0.34009  -0.31144
 Alpha virt. eigenvalues --   -0.02854  -0.02157   0.01071   0.02421   0.02987
 Alpha virt. eigenvalues --    0.04131   0.07739   0.09851   0.12427   0.13023
 Alpha virt. eigenvalues --    0.13955   0.14118   0.14579   0.15209   0.15536

 Mulliken charges:
               1
     1  C   -0.089360
     2  C   -0.203630
     3  C    0.080196
     4  C   -0.173542
     5  C   -0.073968
     6  C   -0.194366
     7  H    0.151240
     8  H    0.170346
     9  H    0.164138
    10  H    0.159162
    11  C    0.432753
    12  C   -0.066596
    13  C   -0.359857
    14  H    0.190776
    15  C   -0.088105
    16  H    0.165616
    17  O   -0.572876
    18  Cl  -0.101192
    19  C    0.507068
    20  C   -0.464440
    21  H    0.176088
    22  C   -0.567719
    23  H    0.179179
    24  H    0.193352
    25  H    0.179679
    26  C   -0.572797
    27  H    0.182004
    28  H    0.181653
    29  H    0.185176
    30  C   -0.045466
    31  H    0.138352
    32  H    0.137134
 Sum of Mulliken charges =   0.00000

 Dipole moment (field-independent basis, Debye):
    X=              2.2883    Y=              0.6119    Z=              2.1189  Tot=              3.1782
 N-N= 6.580889795717D+02 E-N=-1.203247336115D+03  KE=-5.674336991538D+01
 1\1\GINC-D10S0B4\FTS\RPM6\ZDO\C15H15Cl1O1\CHMKSH\11-Aug-2020\0\\# opt=
 qst3 pm6 scrf=(cpcm,solvent=toluene) geom=connectivity empiricaldisper
 sion=gd3\\Title Card Required\\0,1\C,2.4083559801,2.6461995477,-0.1784
 989857\C,2.6781543322,1.2883153873,-0.2268039295\C,1.665272808,0.34927
 69107,0.0854909317\C,0.3793211299,0.8171292089,0.4418696117\C,0.126995
 8613,2.2076393908,0.4947157707\C,1.1269320821,3.1123495876,0.184916611
 5\H,3.1897025825,3.3682300049,-0.4198717971\H,3.6760743911,0.948144645
 ,-0.5041657204\H,-0.8721879621,2.5437884034,0.7839714032\H,0.935635928
 1,4.1839850011,0.2208372205\C,-0.6858939641,-0.1395654161,0.7787055655

 Normal termination of Gaussian 09 at Tue Aug 11 05:24:51 2020.
