 Gaussian 09, Revision D.01,
 Gaussian 09:  ES64L-G09RevD.01 24-Apr-2013

 ----------------------------------------------------------------------
 # freq pm6 scrf=(cpcm,solvent=water) geom=connectivity empiricaldisper
 sion=gd3
 ----------------------------------------------------------------------

 -------------------
 Title Card Required
 -------------------
 Symbolic Z-matrix:
 Charge =  0 Multiplicity = 1

                         Standard orientation:
 ---------------------------------------------------------------------
 Center     Atomic      Atomic             Coordinates (Angstroms)
 Number     Number       Type             X           Y           Z
 ---------------------------------------------------------------------
      1          6           0        2.476045    0.775062    0.705276
      2          6           0        1.612280   -0.402184    0.774871
      3          6           0        0.308186   -0.080754    0.389343
      4          6           0        0.282761    1.432115    0.148300
      5          1           0        1.931074   -1.311217    1.254509
      6          1           0       -0.586044   -0.564505    0.782665
      7          6           0        2.067545    3.271232    0.142346
      8          1           0        1.525158    3.767371   -0.686252
      9          1           0        1.900171    3.854429    1.065490
     10          1           0        3.147185    3.294693   -0.090907
     11          7           0        1.614017    1.880137    0.310101
     12          8           0       -0.672915    2.136022   -0.121444
     13          8           0        3.663274    0.924705    0.921059
     14          6           0        1.631562   -2.443149   -1.189383
     15          1           0        1.799206   -3.503070   -0.968732
     16          6           0        0.302541   -2.015038   -1.378153
     17          1           0       -0.494118   -2.774692   -1.317237
     18          6           0        2.685401   -1.561553   -1.165715
     19          1           0        2.584708   -0.547361   -1.574489
     20          6           0        4.052966   -1.953304   -0.765401
     21          1           0        4.630395   -1.104543   -0.363272
     22          1           0        4.083197   -2.757954   -0.014730
     23          1           0        4.626141   -2.326570   -1.635996
     24          6           0       -0.058781   -0.668278   -1.469315
     25          1           0        0.651747    0.042312   -1.927501
     26          6           0       -1.493735   -0.309645   -1.750774
     27          1           0       -1.838451   -0.676358   -2.739522
     28          1           0       -1.682096    0.778672   -1.673652
     29          6           0       -3.303819   -0.464676   -0.036808
     30          6           0       -3.619326    0.965502   -0.175169
     31          1           0       -4.090343    1.205139   -1.146391
     32          1           0       -4.330117    1.307107    0.602570
     33          1           0       -2.724547    1.619996   -0.089869
     34          8           0       -2.314929   -1.057197   -0.794656
     35          8           0       -3.838514   -1.270483    0.714529
     36          1           0        4.426842   -0.503819    1.999625
     37          1           0       -0.605730    3.930155   -0.681897
     38          1           0       -2.962764   -3.007948    0.563150
     39          1           0       -5.206025   -0.495201    1.893382
     40          8           0       -2.304632   -3.593092    0.143270
     41          1           0       -1.881134   -3.041438   -0.534659
     42          8           0       -5.707638    0.254766    2.254762
     43          1           0       -6.310182   -0.118258    2.898611
     44          8           0       -0.450568    4.775837   -1.144177
     45          1           0       -1.063432    4.783212   -1.879745
     46          8           0        4.636603   -1.248857    2.587716
     47          1           0        5.423847   -1.656710    2.229181
 ---------------------------------------------------------------------

 SCF Done:  E(RPM6D3) = -0.592496844111     A.U. after   19 cycles

 The electronic state is 1-A.
 Alpha  occ. eigenvalues --   -1.23990  -1.19858  -1.19509  -1.16258  -1.14459
 Alpha  occ. eigenvalues --   -1.10755  -1.10346  -1.10247  -1.10132  -1.09253
 Alpha  occ. eigenvalues --   -1.04521  -1.02882  -1.00049  -0.96531  -0.90784
 Alpha  occ. eigenvalues --   -0.88926  -0.85620  -0.81952  -0.78265  -0.77555
 Alpha  occ. eigenvalues --   -0.74191  -0.71024  -0.69302  -0.69077  -0.68881
 Alpha  occ. eigenvalues --   -0.68125  -0.67224  -0.65365  -0.64508  -0.63449
 Alpha  occ. eigenvalues --   -0.62291  -0.60704  -0.60486  -0.58799  -0.57880
 Alpha  occ. eigenvalues --   -0.56696  -0.56201  -0.55088  -0.54767  -0.54057
 Alpha  occ. eigenvalues --   -0.53702  -0.53083  -0.52991  -0.52793  -0.52483
 Alpha  occ. eigenvalues --   -0.52270  -0.52035  -0.51186  -0.51043  -0.50700
 Alpha  occ. eigenvalues --   -0.49794  -0.48542  -0.48041  -0.46681  -0.44504
 Alpha  occ. eigenvalues --   -0.44400  -0.44328  -0.44208  -0.44153  -0.44032
 Alpha  occ. eigenvalues --   -0.43268  -0.40895  -0.39925  -0.38354  -0.34068
 Alpha virt. eigenvalues --   -0.06825  -0.02514   0.00146   0.01391   0.01911
 Alpha virt. eigenvalues --    0.02047   0.03273   0.05275   0.07771   0.08258
 Alpha virt. eigenvalues --    0.10244   0.10593   0.11309   0.11671   0.12067

 Mulliken charges:
               1
     1  C    0.669078
     2  C   -0.523933
     3  C   -0.042308
     4  C    0.584456
     5  H    0.212741
     6  H    0.183803
     7  C   -0.266083
     8  H    0.174626
     9  H    0.160679
    10  H    0.171407
    11  N   -0.473386
    12  O   -0.559789
    13  O   -0.566399
    14  C   -0.337056
    15  H    0.189591
    16  C    0.066249
    17  H    0.146595
    18  C    0.168251
    19  H    0.141550
    20  C   -0.548403
    21  H    0.188448
    22  H    0.187779
    23  H    0.203928
    24  C   -0.293225
    25  H    0.190738
    26  C    0.012832
    27  H    0.163192
    28  H    0.162920
    29  C    0.731478
    30  C   -0.655700
    31  H    0.229263
    32  H    0.228618
    33  H    0.239606
    34  O   -0.504166
    35  O   -0.575825
    36  H    0.339743
    37  H    0.341834
    38  H    0.341080
    39  H    0.339886
    40  O   -0.691833
    41  H    0.326940
    42  O   -0.679226
    43  H    0.328584
    44  O   -0.683816
    45  H    0.327820
    46  O   -0.681357
    47  H    0.328786
 Sum of Mulliken charges =   0.00000

 Dipole moment (field-independent basis, Debye):
    X=              2.0516    Y=              0.1046    Z=             -8.5431  Tot=              8.7866
 N-N= 1.193442256903D+03 E-N=-2.212800809818D+03  KE=-8.502933382575D+01
  Exact polarizability: 272.219 -14.518 228.556   5.835  33.800 153.212
 Approx polarizability: 157.352  -6.138 119.525   6.066   3.938  82.560
 D2PCM: C-PCM CHGder 2nd derivatives, FixD1E=F FixD2E=F DoIter=F DoCFld=F I1PDM=0
 CoulSu:  requested number of processors reduced to:   3 ShMem   1 Linda.
 Calling FoFJK, ICntrl=    100127 FMM=F ISym2X=0 I1Cent= 0 IOpClX= 0 NMat=1 NMatS=1 NMatT=0.
 Full mass-weighted force constant matrix:
 Low frequencies --- -785.8757   -0.3197   -0.0654   -0.0617    2.0676    4.4300
 Low frequencies ---    7.8056   14.1397   17.3111
 ******    1 imaginary frequencies (negative Signs) ******

                      1                      2                      3
                      A                      A                      A
 Frequencies --   -785.8757                13.8105                17.2250
 Red. masses --      7.6770                 5.6781                 5.5115
 Frc consts  --      2.7935                 0.0006                 0.0010
 IR Inten    --   2367.6686                 3.7025                 0.1749

                      4                      5                      6
                      A                      A                      A
 Frequencies --     23.8289                29.8983                38.4683
 Red. masses --      6.5371                 6.6444                 6.6826
 Frc consts  --      0.0022                 0.0035                 0.0058
 IR Inten    --      3.8561                 0.7425                 9.2058

                      7                      8                      9
                      A                      A                      A
 Frequencies --     43.2939                44.3012                54.2264
 Red. masses --      4.5022                 7.0281                 6.2534
 Frc consts  --      0.0050                 0.0081                 0.0108
 IR Inten    --     10.2274                 1.7785                11.1625

                     10                     11                     12
                      A                      A                      A
 Frequencies --     56.5617                59.4181                76.2344
 Red. masses --      3.0235                 5.1627                 4.0744
 Frc consts  --      0.0057                 0.0107                 0.0140
 IR Inten    --      0.9392                10.4933                10.1700

                     13                     14                     15
                      A                      A                      A
 Frequencies --     79.0359                85.3946                86.4468
 Red. masses --      2.5994                 2.8610                 4.5297
 Frc consts  --      0.0096                 0.0123                 0.0199
 IR Inten    --     74.2863                 5.8172                 3.3676

                     16                     17                     18
                      A                      A                      A
 Frequencies --     93.9429               102.9156               110.0386
 Red. masses --      1.8893                 2.4626                 4.5680
 Frc consts  --      0.0098                 0.0154                 0.0326
 IR Inten    --      9.3756                11.4922                19.8094

                     19                     20                     21
                      A                      A                      A
 Frequencies --    112.3994               120.9492               126.3681
 Red. masses --      3.0085                 2.6063                 1.2065
 Frc consts  --      0.0224                 0.0225                 0.0114
 IR Inten    --     11.2021                 1.5330               118.4825

                     22                     23                     24
                      A                      A                      A
 Frequencies --    128.8526               131.4406               134.3320
 Red. masses --      1.2765                 2.5695                 1.4033
 Frc consts  --      0.0125                 0.0262                 0.0149
 IR Inten    --    105.6636                82.4578                16.0905

                     25                     26                     27
                      A                      A                      A
 Frequencies --    149.1643               152.7792               161.4387
 Red. masses --      2.1875                 4.2187                 3.2156
 Frc consts  --      0.0287                 0.0580                 0.0494
 IR Inten    --     72.3685                 1.5813                13.9548

                     28                     29                     30
                      A                      A                      A
 Frequencies --    182.7139               192.9375               199.0323
 Red. masses --      4.8496                 1.6219                 1.5005
 Frc consts  --      0.0954                 0.0356                 0.0350
 IR Inten    --     29.2156                80.4064                92.1043

                     31                     32                     33
                      A                      A                      A
 Frequencies --    206.9752               215.5132               228.1196
 Red. masses --      1.6286                 1.0731                 1.1118
 Frc consts  --      0.0411                 0.0294                 0.0341
 IR Inten    --    111.7522                91.6916                67.7924

                     34                     35                     36
                      A                      A                      A
 Frequencies --    232.2414               234.2109               240.4416
 Red. masses --      2.0807                 2.7570                 1.3598
 Frc consts  --      0.0661                 0.0891                 0.0463
 IR Inten    --     16.8859                26.2854                20.8072

                     37                     38                     39
                      A                      A                      A
 Frequencies --    269.6884               271.5121               278.8004
 Red. masses --      1.9055                 1.1940                 2.0227
 Frc consts  --      0.0817                 0.0519                 0.0926
 IR Inten    --    282.6085                75.3710                41.2713

                     40                     41                     42
                      A                      A                      A
 Frequencies --    291.0287               293.5253               309.7599
 Red. masses --      1.1227                 1.3481                 2.2645
 Frc consts  --      0.0560                 0.0684                 0.1280
 IR Inten    --     76.8927               263.2868                61.0908

                     43                     44                     45
                      A                      A                      A
 Frequencies --    317.0049               343.5707               348.3596
 Red. masses --      1.0873                 1.1526                 2.6922
 Frc consts  --      0.0644                 0.0802                 0.1925
 IR Inten    --    334.1637               266.4759                32.9742

                     46                     47                     48
                      A                      A                      A
 Frequencies --    385.1391               400.4695               406.9116
 Red. masses --      4.7935                 2.5420                 4.2825
 Frc consts  --      0.4189                 0.2402                 0.4178
 IR Inten    --    105.9713                19.6807                52.0685

                     49                     50                     51
                      A                      A                      A
 Frequencies --    450.2825               522.1730               535.8158
 Red. masses --      3.8911                 4.4936                 3.1761
 Frc consts  --      0.4648                 0.7219                 0.5372
 IR Inten    --     10.0101                19.6907                 9.5514

                     52                     53                     54
                      A                      A                      A
 Frequencies --    549.0378               561.2081               569.9503
 Red. masses --      8.9539                 5.8662                 4.7963
 Frc consts  --      1.5903                 1.0886                 0.9180
 IR Inten    --      6.2034               159.4822                24.3113

                     55                     56                     57
                      A                      A                      A
 Frequencies --    626.1519               647.7950               678.9479
 Red. masses --      6.7991                 6.2092                 4.2953
 Frc consts  --      1.5706                 1.5352                 1.1666
 IR Inten    --     54.9510                56.8205                22.6551

                     58                     59                     60
                      A                      A                      A
 Frequencies --    693.0802               814.0161               844.2761
 Red. masses --      4.3592                 1.3610                 4.8810
 Frc consts  --      1.2337                 0.5313                 2.0499
 IR Inten    --     37.9178                29.7146                33.6453

                     61                     62                     63
                      A                      A                      A
 Frequencies --    848.0464               873.1449               910.6981
 Red. masses --      1.5027                 2.2165                 1.2659
 Frc consts  --      0.6367                 0.9956                 0.6186
 IR Inten    --    127.1907                68.9890               401.1672

                     64                     65                     66
                      A                      A                      A
 Frequencies --    930.7138               940.8896               962.1355
 Red. masses --      1.3137                 1.7772                 1.9071
 Frc consts  --      0.6705                 0.9270                 1.0401
 IR Inten    --    471.1824                52.0107               241.5693

                     67                     68                     69
                      A                      A                      A
 Frequencies --    977.0778               987.3012               995.4394
 Red. masses --      1.4103                 1.4552                 1.6446
 Frc consts  --      0.7933                 0.8357                 0.9601
 IR Inten    --     27.4042                22.2783                31.6797

                     70                     71                     72
                      A                      A                      A
 Frequencies --   1014.8406              1026.8639              1044.2893
 Red. masses --      1.6492                 1.7346                 1.8964
 Frc consts  --      1.0007                 1.0777                 1.2185
 IR Inten    --    214.9287               231.5603                97.1479

                     73                     74                     75
                      A                      A                      A
 Frequencies --   1055.9128              1062.6559              1074.6732
 Red. masses --      1.2902                 1.6396                 1.6059
 Frc consts  --      0.8476                 1.0909                 1.0928
 IR Inten    --      6.7672               106.4215               166.5227

                     76                     77                     78
                      A                      A                      A
 Frequencies --   1081.1765              1097.6895              1134.1505
 Red. masses --      2.0397                 2.3195                 1.2529
 Frc consts  --      1.4048                 1.6467                 0.9495
 IR Inten    --    182.0791               244.6925                14.7382

                     79                     80                     81
                      A                      A                      A
 Frequencies --   1156.6197              1165.0553              1169.9699
 Red. masses --      1.0624                 1.6845                 1.0878
 Frc consts  --      0.8374                 1.3472                 0.8773
 IR Inten    --    130.6757               266.4746                47.4372

                     82                     83                     84
                      A                      A                      A
 Frequencies --   1182.9902              1186.8720              1201.1978
 Red. masses --      1.1335                 1.8269                 1.7775
 Frc consts  --      0.9346                 1.5163                 1.5110
 IR Inten    --     43.5347               319.0349                59.1487

                     85                     86                     87
                      A                      A                      A
 Frequencies --   1210.0049              1216.7908              1219.2736
 Red. masses --      1.1185                 1.3612                 1.0979
 Frc consts  --      0.9649                 1.1874                 0.9616
 IR Inten    --    206.0023                25.4510                66.9791

                     88                     89                     90
                      A                      A                      A
 Frequencies --   1231.5642              1240.0106              1252.2031
 Red. masses --      1.2657                 1.4177                 1.1526
 Frc consts  --      1.1311                 1.2843                 1.0648
 IR Inten    --     47.1244               471.0412                29.2515

                     91                     92                     93
                      A                      A                      A
 Frequencies --   1263.5477              1265.5295              1271.0086
 Red. masses --      1.6104                 1.5248                 1.7915
 Frc consts  --      1.5148                 1.4388                 1.7052
 IR Inten    --    123.2208               106.5612               362.2545

                     94                     95                     96
                      A                      A                      A
 Frequencies --   1278.9213              1283.5719              1310.8875
 Red. masses --      1.2352                 1.3443                 1.3879
 Frc consts  --      1.1904                 1.3049                 1.4052
 IR Inten    --    238.5496                15.3071               270.8133

                     97                     98                     99
                      A                      A                      A
 Frequencies --   1313.8558              1317.0201              1381.8949
 Red. masses --      1.6335                 1.2642                 1.1504
 Frc consts  --      1.6613                 1.2920                 1.2944
 IR Inten    --    125.0191                17.8543               120.8491

                    100                    101                    102
                      A                      A                      A
 Frequencies --   1382.3492              1384.0029              1390.1119
 Red. masses --      1.1112                 4.5859                 1.1198
 Frc consts  --      1.2511                 5.1755                 1.2749
 IR Inten    --    126.0142                28.1885               118.2185

                    103                    104                    105
                      A                      A                      A
 Frequencies --   1395.8794              1431.3959              1441.3845
 Red. masses --      4.6677                 1.1138                 5.7134
 Frc consts  --      5.3586                 1.3446                 6.9937
 IR Inten    --    643.9163               325.8760               392.8204

                    106                    107                    108
                      A                      A                      A
 Frequencies --   1576.2535              1626.5449              1708.3798
 Red. masses --      9.0949                 7.6417                12.3092
 Frc consts  --     13.3137                11.9116                21.1665
 IR Inten    --    395.4211               219.6635              2873.4010

                    109                    110                    111
                      A                      A                      A
 Frequencies --   1731.6960              1809.4860              2399.5208
 Red. masses --     10.9782                12.3204                 1.0864
 Frc consts  --     19.3965                23.7676                 3.6855
 IR Inten    --    629.0685               294.8124               621.1097

                    112                    113                    114
                      A                      A                      A
 Frequencies --   2416.7301              2426.6817              2433.1901
 Red. masses --      1.0812                 1.0831                 1.0822
 Frc consts  --      3.7206                 3.7580                 3.7748
 IR Inten    --    954.0048               627.0218               563.1434

                    115                    116                    117
                      A                      A                      A
 Frequencies --   2557.2980              2584.2632              2584.8610
 Red. masses --      1.0228                 1.0242                 1.0237
 Frc consts  --      3.9408                 4.0300                 4.0300
 IR Inten    --    176.1374                78.7573                48.6549

                    118                    119                    120
                      A                      A                      A
 Frequencies --   2586.0079              2615.5983              2626.4065
 Red. masses --      1.0261                 1.0852                 1.0894
 Frc consts  --      4.0429                 4.3743                 4.4273
 IR Inten    --    116.8374               366.8485               112.3717

                    121                    122                    123
                      A                      A                      A
 Frequencies --   2641.1303              2645.0979              2656.6305
 Red. masses --      1.0858                 1.0857                 1.0830
 Frc consts  --      4.4627                 4.4757                 4.5032
 IR Inten    --    129.1527               233.8126               184.5255

                    124                    125                    126
                      A                      A                      A
 Frequencies --   2658.4823              2672.7747              2679.4130
 Red. masses --      1.0863                 1.0812                 1.0648
 Frc consts  --      4.5234                 4.5506                 4.5040
 IR Inten    --    112.1318                83.1060                70.6102

                    127                    128                    129
                      A                      A                      A
 Frequencies --   2694.5703              2697.1471              2701.2390
 Red. masses --      1.0466                 1.0739                 1.0754
 Frc consts  --      4.4771                 4.6028                 4.6231
 IR Inten    --    115.1175               243.4544                68.5385

                    130                    131                    132
                      A                      A                      A
 Frequencies --   2712.7504              2738.9828              2751.5248
 Red. masses --      1.0760                 1.0732                 1.0289
 Frc consts  --      4.6652                 4.7436                 4.5897
 IR Inten    --    185.6817               281.6833                72.3472

                    133                    134                    135
                      A                      A                      A
 Frequencies --   2758.8259              2763.9450              2775.2172
 Red. masses --      1.0344                 1.0743                 1.0344
 Frc consts  --      4.6385                 4.8352                 4.6940
 IR Inten    --    140.1141               211.8779               198.7871

 - Thermochemistry -
 -------------------
 Temperature   298.150 Kelvin.  Pressure   1.00000 Atm.
 Atom     1 has atomic number  6 and mass  12.00000

 Molecular mass:   323.15802 amu.
 Principal axes and moments of inertia in atomic units:
                           1         2         3
     Eigenvalues --  6202.74717********************
           X            0.99976  -0.02148  -0.00376
           Y            0.02145   0.99974  -0.00765
           Z            0.00392   0.00756   0.99996
 This molecule is an asymmetric top.
 Rotational symmetry number  1.
 Warning -- assumption of classical behavior for rotation
           may cause significant error
 Rotational temperatures (Kelvin)      0.01396     0.00800     0.00623
 Rotational constants (GHZ):           0.29096     0.16666     0.12981
    1 imaginary frequencies ignored.
 Zero-point vibrational energy     851536.1 (Joules/Mol)
                                  203.52201 (Kcal/Mol)
 Warning -- explicit consideration of  53 degrees of freedom as
           vibrations may cause significant error
 Vibrational temperatures:     19.87    24.78    34.28    43.02    55.35
          (Kelvin)             62.29    63.74    78.02    81.38    85.49
                              109.68   113.71   122.86   124.38   135.16
                              148.07   158.32   161.72   174.02   181.82
                              185.39   189.11   193.27   214.61   219.81
                              232.27   262.88   277.59   286.36   297.79
                              310.07   328.21   334.14   336.98   345.94
                              388.02   390.64   401.13   418.72   422.32
                              445.67   456.10   494.32   501.21   554.13
                              576.19   585.45   647.86   751.29   770.92
                              789.94   807.45   820.03   900.89   932.03
                              976.85   997.19  1171.19  1214.72  1220.15
                             1256.26  1310.29  1339.09  1353.73  1384.30
                             1405.80  1420.50  1432.21  1460.13  1477.43
                             1502.50  1519.22  1528.92  1546.21  1555.57
                             1579.33  1631.79  1664.12  1676.25  1683.32
                             1702.06  1707.64  1728.25  1740.93  1750.69
                             1754.26  1771.94  1784.10  1801.64  1817.96
                             1820.81  1828.70  1840.08  1846.77  1886.07
                             1890.34  1894.90  1988.24  1988.89  1991.27
                             2000.06  2008.36  2059.46  2073.83  2267.87
                             2340.23  2457.97  2491.52  2603.44  3452.37
                             3477.13  3491.45  3500.81  3679.38  3718.17
                             3719.03  3720.68  3763.26  3778.81  3799.99
                             3805.70  3822.29  3824.96  3845.52  3855.07
                             3876.88  3880.59  3886.48  3903.04  3940.78
                             3958.83  3969.33  3976.70  3992.91

 Zero-point correction=                           0.324333 (Hartree/Particle)
 Thermal correction to Energy=                    0.359544
 Thermal correction to Enthalpy=                  0.360488
 Thermal correction to Gibbs Free Energy=         0.252477
 Sum of electronic and zero-point Energies=             -0.268164
 Sum of electronic and thermal Energies=                -0.232953
 Sum of electronic and thermal Enthalpies=              -0.232008
 Sum of electronic and thermal Free Energies=           -0.340019

                     E (Thermal)             CV                S
                      KCal/Mol        Cal/Mol-Kelvin    Cal/Mol-Kelvin
 Total                  225.617            115.974            227.328
 Electronic               0.000              0.000              0.000
 Translational            0.889              2.981             43.214
 Rotational               0.889              2.981             35.189
 Vibrational            223.840            110.013            148.924
 Vibration     1          0.593              1.986              7.370
 Vibration     2          0.593              1.986              6.931
 Vibration     3          0.593              1.985              6.286
 Vibration     4          0.594              1.984              5.836
 Vibration     5          0.594              1.982              5.336
 Vibration     6          0.595              1.980              5.102
 Vibration     7          0.595              1.980              5.057
 Vibration     8          0.596              1.976              4.657
 Vibration     9          0.596              1.975              4.574
 Vibration    10          0.597              1.974              4.476
 Vibration    11          0.599              1.965              3.986
 Vibration    12          0.600              1.963              3.915
 Vibration    13          0.601              1.959              3.763
 Vibration    14          0.601              1.959              3.739
 Vibration    15          0.603              1.954              3.576
 Vibration    16          0.605              1.947              3.398
 Vibration    17          0.606              1.941              3.268
 Vibration    18          0.607              1.939              3.227
 Vibration    19          0.609              1.932              3.085
 Vibration    20          0.611              1.927              3.001
 Vibration    21          0.611              1.924              2.963
 Vibration    22          0.612              1.922              2.925
 Vibration    23          0.613              1.919              2.883
 Vibration    24          0.618              1.904              2.683
 Vibration    25          0.619              1.900              2.637
 Vibration    26          0.622              1.890              2.533
 Vibration    27          0.630              1.863              2.301
 Vibration    28          0.635              1.850              2.199
 Vibration    29          0.637              1.841              2.142
 Vibration    30          0.641              1.830              2.070
 Vibration    31          0.645              1.817              1.996
 Vibration    32          0.651              1.798              1.894
 Vibration    33          0.653              1.792              1.862
 Vibration    34          0.654              1.789              1.846
 Vibration    35          0.658              1.779              1.800
 Vibration    36          0.674              1.729              1.598
 Vibration    37          0.675              1.726              1.587
 Vibration    38          0.679              1.713              1.541
 Vibration    39          0.687              1.690              1.468
 Vibration    40          0.688              1.686              1.454
 Vibration    41          0.699              1.655              1.364
 Vibration    42          0.704              1.641              1.326
 Vibration    43          0.722              1.588              1.196
 Vibration    44          0.726              1.579              1.174
 Vibration    45          0.754              1.502              1.019
 Vibration    46          0.766              1.469              0.961
 Vibration    47          0.772              1.455              0.938
 Vibration    48          0.809              1.360              0.795
 Vibration    49          0.877              1.201              0.605
 Vibration    50          0.891              1.171              0.574
 Vibration    51          0.904              1.142              0.546
 Vibration    52          0.917              1.115              0.521
 Vibration    53          0.926              1.096              0.504

 Normal termination of Gaussian 09 at Tue Aug 18 14:30:43 2020.
