 Gaussian 09, Revision D.01,
 Gaussian 09:  ES64L-G09RevD.01 24-Apr-2013

 ----------------------------------------------------------------------
 # opt freq pm6 scrf=(cpcm,solvent=water) geom=connectivity empiricaldi
 spersion=gd3
 ----------------------------------------------------------------------

 -------------------
 Title Card Required
 -------------------
 Symbolic Z-matrix:
 Charge =  0 Multiplicity = 1

 SCF Done:  E(RPM6D3) = -0.286913443401     A.U. after   15 cycles
 SCF Done:  E(RPM6D3) = -0.286998893151     A.U. after   11 cycles
 SCF Done:  E(RPM6D3) = -0.287021017489     A.U. after   11 cycles
 SCF Done:  E(RPM6D3) = -0.287031201794     A.U. after   11 cycles
 SCF Done:  E(RPM6D3) = -0.287035475409     A.U. after   10 cycles
 SCF Done:  E(RPM6D3) = -0.287039965198     A.U. after   11 cycles
 SCF Done:  E(RPM6D3) = -0.287046018141     A.U. after   11 cycles
 SCF Done:  E(RPM6D3) = -0.287053449287     A.U. after   11 cycles
 SCF Done:  E(RPM6D3) = -0.287057625758     A.U. after   10 cycles
 SCF Done:  E(RPM6D3) = -0.287059598673     A.U. after   10 cycles
 SCF Done:  E(RPM6D3) = -0.287063044043     A.U. after   11 cycles
 SCF Done:  E(RPM6D3) = -0.287064113219     A.U. after   10 cycles
 SCF Done:  E(RPM6D3) = -0.287064663090     A.U. after   10 cycles
 SCF Done:  E(RPM6D3) = -0.287064942128     A.U. after    9 cycles
 SCF Done:  E(RPM6D3) = -0.287065069210     A.U. after    8 cycles
 SCF Done:  E(RPM6D3) = -0.287065150795     A.U. after    9 cycles
 SCF Done:  E(RPM6D3) = -0.287065215525     A.U. after    9 cycles
 SCF Done:  E(RPM6D3) = -0.287065273268     A.U. after    9 cycles
 SCF Done:  E(RPM6D3) = -0.287065310195     A.U. after    9 cycles
 Optimization completed.
    -- Stationary point found.
 Normal termination of Gaussian 09 at Tue Aug 18 03:50:53 2020.

 -------------------------------------------------------------
 #N Geom=AllCheck Guess=TCheck SCRF=Check GenChk RPM6/ZDO Freq
 -------------------------------------------------------------

 Structure from the checkpoint file:  "PM6_2H2O_dienophile_pm6_cpcmtoluene_1_water.chk"
 -------------------
 Title Card Required
 -------------------
 Charge =  0 Multiplicity = 1

                         Standard orientation:
 ---------------------------------------------------------------------
 Center     Atomic      Atomic             Coordinates (Angstroms)
 Number     Number       Type             X           Y           Z
 ---------------------------------------------------------------------
      1          6           0        1.176243    0.372804   -0.020407
      2          6           0        0.667913   -1.055599   -0.063314
      3          6           0       -0.668773   -1.055484   -0.064063
      4          6           0       -1.176712    0.372795   -0.021722
      5          1           0        1.373014   -1.881909   -0.086447
      6          1           0       -1.374105   -1.881589   -0.087883
      7          6           0        0.003225    2.664204    0.037635
      8          1           0       -1.001646    3.046764    0.292748
      9          1           0        0.716729    3.035184    0.795444
     10          1           0        0.292180    3.075963   -0.946469
     11          7           0       -0.000281    1.191018    0.008258
     12          8           0       -2.311620    0.787189   -0.009137
     13          8           0        2.311501    0.785811   -0.006784
     14          8           0       -3.676015   -1.781172   -0.027566
     15          1           0       -4.218227   -1.980149    0.737014
     16          1           0       -3.611139   -0.814326   -0.061937
     17          8           0        3.674568   -1.783086   -0.029254
     18          1           0        3.609420   -0.816183   -0.062075
     19          1           0        4.216886   -1.983148    0.734962
 ---------------------------------------------------------------------

 SCF Done:  E(RPM6D3) = -0.287065310197     A.U. after    2 cycles

 The electronic state is 1-A.
 Alpha  occ. eigenvalues --   -1.24568  -1.20822  -1.17832  -1.10604  -1.10546
 Alpha  occ. eigenvalues --   -1.06624  -0.91792  -0.88929  -0.78868  -0.75042
 Alpha  occ. eigenvalues --   -0.69227  -0.68669  -0.65002  -0.63321  -0.61486
 Alpha  occ. eigenvalues --   -0.58864  -0.56857  -0.56374  -0.54468  -0.53952
 Alpha  occ. eigenvalues --   -0.52798  -0.52303  -0.51165  -0.44729  -0.44478
 Alpha  occ. eigenvalues --   -0.44357  -0.43898  -0.41037  -0.39369
 Alpha virt. eigenvalues --   -0.06088   0.01260   0.02395   0.02707   0.07482
 Alpha virt. eigenvalues --    0.07836   0.11359   0.11871   0.13780   0.15179
 Alpha virt. eigenvalues --    0.15464   0.16608   0.16666   0.18796   0.18944

 Mulliken charges:
               1
     1  C    0.616732
     2  C   -0.211189
     3  C   -0.210992
     4  C    0.616379
     5  H    0.217994
     6  H    0.218016
     7  C   -0.255689
     8  H    0.172122
     9  H    0.167292
    10  H    0.163726
    11  N   -0.473266
    12  O   -0.504442
    13  O   -0.503921
    14  O   -0.672230
    15  H    0.329391
    16  H    0.336470
    17  O   -0.672261
    18  H    0.336481
    19  H    0.329388
 Sum of Mulliken charges =   0.00000

 Dipole moment (field-independent basis, Debye):
    X=             -0.0240    Y=              1.5040    Z=              2.7431  Tot=              3.1285
 N-N= 3.314279643324D+02 E-N=-5.890643745478D+02  KE=-3.346739599622D+01
  Exact polarizability: 149.918   0.261  71.473   0.070  -0.423  21.515
 Approx polarizability:  86.044   0.090  42.037   0.042  -0.384  13.017
 D2PCM: C-PCM CHGder 2nd derivatives, FixD1E=F FixD2E=F DoIter=F DoCFld=F I1PDM=0
 Calling FoFJK, ICntrl=    100127 FMM=F ISym2X=0 I1Cent= 0 IOpClX= 0 NMat=1 NMatS=1 NMatT=0.
 Full mass-weighted force constant matrix:
 Low frequencies ---   -9.3040   -7.1432   -0.0358   -0.0154    0.0674    3.3501
 Low frequencies ---   15.0018   32.8574   34.8382
 Diagonal vibrational polarizability:
      673.6042048     209.8182007     310.5532494

                      1                      2                      3
                      A                      A                      A
 Frequencies --     13.1596                32.7744                34.7004
 Red. masses --      1.0213                 5.0267                 8.5797
 Frc consts  --      0.0001                 0.0032                 0.0061
 IR Inten    --      0.0472                 0.4680                 0.0634

                      4                      5                      6
                      A                      A                      A
 Frequencies --     44.6963                65.7330                87.5847
 Red. masses --      6.0147                 5.5781                 5.7272
 Frc consts  --      0.0071                 0.0142                 0.0259
 IR Inten    --      3.3003                28.3908                 0.0728

                      7                      8                      9
                      A                      A                      A
 Frequencies --     90.5573               108.4913               143.8446
 Red. masses --      5.3692                 4.4844                 1.1042
 Frc consts  --      0.0259                 0.0311                 0.0135
 IR Inten    --      0.1140                11.5426                84.0584

                     10                     11                     12
                      A                      A                      A
 Frequencies --    144.1671               169.9389               171.5137
 Red. masses --      1.1039                 1.1109                 1.1377
 Frc consts  --      0.0135                 0.0189                 0.0197
 IR Inten    --     91.3913                74.2682               351.7173

                     13                     14                     15
                      A                      A                      A
 Frequencies --    190.7433               255.4902               262.2886
 Red. masses --      4.8629                 3.3902                 3.5099
 Frc consts  --      0.1042                 0.1304                 0.1423
 IR Inten    --      4.4732                13.2056                 0.2361

                     16                     17                     18
                      A                      A                      A
 Frequencies --    335.4870               341.3462               364.4356
 Red. masses --      1.0481                 1.2608                 3.5819
 Frc consts  --      0.0695                 0.0866                 0.2803
 IR Inten    --    723.9812               143.4133                24.1706

                     19                     20                     21
                      A                      A                      A
 Frequencies --    535.4904               545.3554               551.2421
 Red. masses --      4.8598                 8.9082                 3.7194
 Frc consts  --      0.8211                 1.5610                 0.6659
 IR Inten    --     18.9936                 0.3942                50.8602

                     22                     23                     24
                      A                      A                      A
 Frequencies --    647.7106               669.6987               835.7923
 Red. masses --      8.0115                 4.3220                 6.4188
 Frc consts  --      1.9803                 1.1421                 2.6418
 IR Inten    --     36.7588                 0.0455                19.2910

                     25                     26                     27
                      A                      A                      A
 Frequencies --    881.9524               954.4856               961.9303
 Red. masses --      1.4770                 1.9983                 1.5884
 Frc consts  --      0.6769                 1.0726                 0.8660
 IR Inten    --    222.5571               319.0923                 0.2034

                     28                     29                     30
                      A                      A                      A
 Frequencies --   1025.4396              1053.0136              1055.7596
 Red. masses --      3.3009                 1.6088                 1.3427
 Frc consts  --      2.0451                 1.0511                 0.8818
 IR Inten    --    228.2592                74.4767                20.3443

                     31                     32                     33
                      A                      A                      A
 Frequencies --   1176.6546              1196.2717              1217.4583
 Red. masses --      2.1571                 1.8533                 1.0499
 Frc consts  --      1.7596                 1.5626                 0.9169
 IR Inten    --     32.1542                24.6251                52.7368

                     34                     35                     36
                      A                      A                      A
 Frequencies --   1223.1740              1252.1122              1315.5779
 Red. masses --      1.2266                 1.6880                 1.2719
 Frc consts  --      1.0812                 1.5593                 1.2970
 IR Inten    --      6.5527               469.3450                 0.4138

                     37                     38                     39
                      A                      A                      A
 Frequencies --   1384.4201              1384.5010              1435.1542
 Red. masses --      1.1106                 1.1124                 5.3105
 Frc consts  --      1.2542                 1.2564                 6.4443
 IR Inten    --     81.3182               184.0418               345.5340

                     40                     41                     42
                      A                      A                      A
 Frequencies --   1734.5667              1739.0233              1854.0897
 Red. masses --     12.8386                 8.2713                12.6767
 Frc consts  --     22.7589                14.7379                25.6755
 IR Inten    --   2734.8124                 4.8416                 0.9745

                     43                     44                     45
                      A                      A                      A
 Frequencies --   2448.7803              2449.3501              2589.6885
 Red. masses --      1.0832                 1.0828                 1.0222
 Frc consts  --      3.8269                 3.8273                 4.0392
 IR Inten    --    245.7981               792.3046                40.0150

                     46                     47                     48
                      A                      A                      A
 Frequencies --   2589.8273              2656.0193              2659.3714
 Red. masses --      1.0222                 1.0863                 1.0870
 Frc consts  --      4.0394                 4.5149                 4.5296
 IR Inten    --     84.8911               101.7108               126.4962

                     49                     50                     51
                      A                      A                      A
 Frequencies --   2700.7398              2720.2859              2756.1470
 Red. masses --      1.0763                 1.0920                 1.0282
 Frc consts  --      4.6254                 4.7609                 4.6017
 IR Inten    --    361.7926               401.4058                30.5292

 - Thermochemistry -
 -------------------
 Temperature   298.150 Kelvin.  Pressure   1.00000 Atm.
 Atom     1 has atomic number  6 and mass  12.00000

 Molecular mass:   147.05316 amu.
 Principal axes and moments of inertia in atomic units:
                           1         2         3
     Eigenvalues --  1085.439862561.865173626.81004
           X            1.00000   0.00002  -0.00001
           Y           -0.00002   0.99998  -0.00697
           Z            0.00001   0.00697   0.99998
 This molecule is an asymmetric top.
 Rotational symmetry number  1.
 Warning -- assumption of classical behavior for rotation
           may cause significant error
 Rotational temperatures (Kelvin)      0.07980     0.03381     0.02388
 Rotational constants (GHZ):           1.66268     0.70446     0.49761
 Zero-point vibrational energy     317357.5 (Joules/Mol)
                                   75.85027 (Kcal/Mol)
 Warning -- explicit consideration of  21 degrees of freedom as
           vibrations may cause significant error
 Vibrational temperatures:     18.93    47.15    49.93    64.31    94.58
          (Kelvin)            126.01   130.29   156.09   206.96   207.42
                              244.50   246.77   274.44   367.59   377.37
                              482.69   491.12   524.34   770.45   784.64
                              793.11   931.91   963.55  1202.52  1268.93
                             1373.29  1384.00  1475.38  1515.05  1519.00
                             1692.94  1721.17  1751.65  1759.87  1801.51
                             1892.82  1991.87  1991.99  2064.86  2495.65
                             2502.06  2667.62  3523.24  3524.06  3725.98
                             3726.18  3821.41  3826.24  3885.76  3913.88
                             3965.48

 Zero-point correction=                           0.120875 (Hartree/Particle)
 Thermal correction to Energy=                    0.136646
 Thermal correction to Enthalpy=                  0.137591
 Thermal correction to Gibbs Free Energy=         0.074345
 Sum of electronic and zero-point Energies=             -0.166190
 Sum of electronic and thermal Energies=                -0.150419
 Sum of electronic and thermal Enthalpies=              -0.149475
 Sum of electronic and thermal Free Energies=           -0.212720

                     E (Thermal)             CV                S
                      KCal/Mol        Cal/Mol-Kelvin    Cal/Mol-Kelvin
 Total                   85.747             49.165            133.112
 Electronic               0.000              0.000              0.000
 Translational            0.889              2.981             40.868
 Rotational               0.889              2.981             30.690
 Vibrational             83.970             43.204             61.554
 Vibration     1          0.593              1.987              7.466
 Vibration     2          0.594              1.983              5.654
 Vibration     3          0.594              1.983              5.541
 Vibration     4          0.595              1.980              5.039
 Vibration     5          0.597              1.971              4.277
 Vibration     6          0.601              1.958              3.713
 Vibration     7          0.602              1.956              3.648
 Vibration     8          0.606              1.942              3.296
 Vibration     9          0.616              1.909              2.752
 Vibration    10          0.616              1.909              2.748
 Vibration    11          0.625              1.879              2.436
 Vibration    12          0.626              1.878              2.419
 Vibration    13          0.634              1.853              2.221
 Vibration    14          0.666              1.754              1.692
 Vibration    15          0.670              1.742              1.646
 Vibration    16          0.717              1.605              1.234
 Vibration    17          0.721              1.593              1.206
 Vibration    18          0.738              1.545              1.103
 Vibration    19          0.890              1.172              0.575
 Vibration    20          0.901              1.150              0.554
 Vibration    21          0.907              1.137              0.542

 Normal termination of Gaussian 09 at Tue Aug 18 03:50:58 2020.
