 Gaussian 09, Revision D.01,
 Gaussian 09:  ES64L-G09RevD.01 24-Apr-2013

 ----------------------------------------------------------------------
 # opt freq pm6 scrf=(cpcm,solvent=water) geom=connectivity empiricaldi
 spersion=gd3
 ----------------------------------------------------------------------

 -------------------
 Title Card Required
 -------------------
 Symbolic Z-matrix:
 Charge =  0 Multiplicity = 1

 SCF Done:  E(RPM6D3) = -0.325212754712     A.U. after   15 cycles
 SCF Done:  E(RPM6D3) = -0.325308382276     A.U. after   12 cycles
 SCF Done:  E(RPM6D3) = -0.325350443631     A.U. after   12 cycles
 SCF Done:  E(RPM6D3) = -0.325372189540     A.U. after   12 cycles
 SCF Done:  E(RPM6D3) = -0.325399830219     A.U. after   12 cycles
 SCF Done:  E(RPM6D3) = -0.325432043680     A.U. after   12 cycles
 SCF Done:  E(RPM6D3) = -0.325445089532     A.U. after   12 cycles
 SCF Done:  E(RPM6D3) = -0.325454546336     A.U. after   12 cycles
 SCF Done:  E(RPM6D3) = -0.325461760776     A.U. after   12 cycles
 SCF Done:  E(RPM6D3) = -0.325466163553     A.U. after   12 cycles
 SCF Done:  E(RPM6D3) = -0.325494068034     A.U. after    9 cycles
 SCF Done:  E(RPM6D3) = -0.325494174747     A.U. after    8 cycles
 SCF Done:  E(RPM6D3) = -0.325494284199     A.U. after    8 cycles
 SCF Done:  E(RPM6D3) = -0.325494364396     A.U. after    9 cycles
 SCF Done:  E(RPM6D3) = -0.325494418825     A.U. after    8 cycles
 SCF Done:  E(RPM6D3) = -0.325494444849     A.U. after    8 cycles
 SCF Done:  E(RPM6D3) = -0.325494449315     A.U. after    8 cycles
 SCF Done:  E(RPM6D3) = -0.325494453058     A.U. after    8 cycles
 SCF Done:  E(RPM6D3) = -0.325494471203     A.U. after    8 cycles
 Optimization completed.
    -- Stationary point found.
 Normal termination of Gaussian 09 at Tue Aug 18 03:55:53 2020.

 -------------------------------------------------------------
 #N Geom=AllCheck Guess=TCheck SCRF=Check GenChk RPM6/ZDO Freq
 -------------------------------------------------------------

 Structure from the checkpoint file:  "PM6_2H2O_diene_pm6_cpcmtoluene_1_water.chk"
 -------------------
 Title Card Required
 -------------------
 Charge =  0 Multiplicity = 1

                         Standard orientation:
 ---------------------------------------------------------------------
 Center     Atomic      Atomic             Coordinates (Angstroms)
 Number     Number       Type             X           Y           Z
 ---------------------------------------------------------------------
      1          6           0       -3.232679    0.479517   -0.254501
      2          1           0       -3.396752    1.440210   -0.750059
      3          6           0       -1.828874    0.079161   -0.160080
      4          1           0       -1.116619    0.914882   -0.096309
      5          6           0       -4.258953   -0.234479    0.231102
      6          1           0       -4.104577   -1.189249    0.740838
      7          6           0       -5.679634    0.197211    0.134393
      8          1           0       -6.130177    0.311608    1.132333
      9          1           0       -5.813126    1.153916   -0.388630
     10          1           0       -6.285868   -0.548878   -0.402267
     11          6           0       -1.397914   -1.188780   -0.167524
     12          1           0       -2.079916   -2.040783   -0.244734
     13          6           0        0.035595   -1.597826   -0.078194
     14          1           0        0.355222   -2.198829   -0.951154
     15          1           0        0.257846   -2.133299    0.865101
     16          6           0        2.175296   -0.349611    0.025941
     17          6           0        2.934721   -1.607788    0.152613
     18          1           0        2.778794   -2.294499   -0.698062
     19          1           0        4.026840   -1.421964    0.204030
     20          1           0        2.675854   -2.174103    1.065477
     21          8           0        0.811120   -0.349520   -0.086682
     22          8           0        2.638559    0.786858    0.007027
     23          8           0        5.470151    0.459179    0.069233
     24          1           0        4.575914    0.839981    0.128952
     25          1           0        5.894210    0.906056   -0.663034
     26          8           0        0.360331    2.688284    0.016646
     27          1           0        0.666912    3.160886    0.790255
     28          1           0        0.968816    1.931216   -0.085034
 ---------------------------------------------------------------------

 SCF Done:  E(RPM6D3) = -0.325494471204     A.U. after    2 cycles

 The electronic state is 1-A.
 Alpha  occ. eigenvalues --   -1.19141  -1.13888  -1.10221  -1.10016  -1.05445
 Alpha  occ. eigenvalues --   -1.01464  -0.99679  -0.94532  -0.84982  -0.80049
 Alpha  occ. eigenvalues --   -0.75626  -0.69675  -0.68681  -0.68334  -0.65781
 Alpha  occ. eigenvalues --   -0.63994  -0.62083  -0.58803  -0.56519  -0.56104
 Alpha  occ. eigenvalues --   -0.53177  -0.52938  -0.52795  -0.52272  -0.51979
 Alpha  occ. eigenvalues --   -0.51401  -0.50225  -0.48461  -0.45808  -0.45129
 Alpha  occ. eigenvalues --   -0.44214  -0.44191  -0.43857  -0.42845  -0.41196
 Alpha  occ. eigenvalues --   -0.34672
 Alpha virt. eigenvalues --    0.00642   0.00689   0.02360   0.05926   0.08592
 Alpha virt. eigenvalues --    0.11453   0.12811   0.14394   0.15268   0.15549
 Alpha virt. eigenvalues --    0.16153   0.17429   0.17888   0.18271   0.18300

 Mulliken charges:
               1
     1  C   -0.255632
     2  H    0.160182
     3  C   -0.097392
     4  H    0.165730
     5  C   -0.042787
     6  H    0.139711
     7  C   -0.497739
     8  H    0.171415
     9  H    0.165503
    10  H    0.171816
    11  C   -0.236769
    12  H    0.172300
    13  C    0.018695
    14  H    0.150511
    15  H    0.151127
    16  C    0.721139
    17  C   -0.648484
    18  H    0.224073
    19  H    0.227056
    20  H    0.225427
    21  O   -0.472166
    22  O   -0.590948
    23  O   -0.680454
    24  H    0.341380
    25  H    0.327506
    26  O   -0.680821
    27  H    0.326771
    28  H    0.342849
 Sum of Mulliken charges =   0.00000

 Dipole moment (field-independent basis, Debye):
    X=             -1.6023    Y=             -5.8092    Z=              0.4632  Tot=              6.0439
 N-N= 4.384200482702D+02 E-N=-7.864701964506D+02  KE=-4.317656269695D+01
  Exact polarizability: 154.363  -2.291 108.994 -11.705  -5.317  42.780
 Approx polarizability:  73.597   4.583  67.020  -4.489  -4.061  25.155
 D2PCM: C-PCM CHGder 2nd derivatives, FixD1E=F FixD2E=F DoIter=F DoCFld=F I1PDM=0
 Calling FoFJK, ICntrl=    100127 FMM=F ISym2X=0 I1Cent= 0 IOpClX= 0 NMat=1 NMatS=1 NMatT=0.
 Full mass-weighted force constant matrix:
 Low frequencies ---   -2.4013   -0.0552   -0.0230    0.0760    7.1057   13.7107
 Low frequencies ---   17.0074   29.1361   32.5257
 Diagonal vibrational polarizability:
      504.2864357     444.7823486     532.1165905

                      1                      2                      3
                      A                      A                      A
 Frequencies --     16.6579                28.8004                32.3968
 Red. masses --      4.5947                 4.1351                 2.4827
 Frc consts  --      0.0008                 0.0020                 0.0015
 IR Inten    --      0.1270                 2.7302                 1.6525

                      4                      5                      6
                      A                      A                      A
 Frequencies --     40.9048                46.6618                53.6831
 Red. masses --      3.8846                 3.6331                 3.7430
 Frc consts  --      0.0038                 0.0047                 0.0064
 IR Inten    --      5.5394                 3.4044                 9.7384

                      7                      8                      9
                      A                      A                      A
 Frequencies --     66.2940                74.3379                94.1153
 Red. masses --      2.8022                 1.4770                 1.6976
 Frc consts  --      0.0073                 0.0048                 0.0089
 IR Inten    --      8.1084                 0.0958                 4.7988

                     10                     11                     12
                      A                      A                      A
 Frequencies --    103.3183               114.8169               121.0860
 Red. masses --      2.5906                 1.2946                 3.1060
 Frc consts  --      0.0163                 0.0101                 0.0268
 IR Inten    --     36.3734               115.0917                30.5772

                     13                     14                     15
                      A                      A                      A
 Frequencies --    123.9149               125.0611               138.4621
 Red. masses --      2.9999                 1.4981                 1.1705
 Frc consts  --      0.0271                 0.0138                 0.0132
 IR Inten    --     14.2500               118.1284                 7.0965

                     16                     17                     18
                      A                      A                      A
 Frequencies --    152.4822               160.3826               169.0143
 Red. masses --      1.7931                 3.9425                 1.2995
 Frc consts  --      0.0246                 0.0597                 0.0219
 IR Inten    --     12.2294                27.7697                80.5803

                     19                     20                     21
                      A                      A                      A
 Frequencies --    188.5897               220.9125               307.8244
 Red. masses --      1.2022                 3.3284                 2.6103
 Frc consts  --      0.0252                 0.0957                 0.1457
 IR Inten    --    107.1542                12.9602                 3.1330

                     22                     23                     24
                      A                      A                      A
 Frequencies --    311.3469               348.0994               354.4484
 Red. masses --      1.0706                 2.0013                 1.2982
 Frc consts  --      0.0611                 0.1429                 0.0961
 IR Inten    --    177.8425                91.2745               282.5846

                     25                     26                     27
                      A                      A                      A
 Frequencies --    423.2628               526.6028               536.9501
 Red. masses --      4.1321                 4.6244                 3.1224
 Frc consts  --      0.4362                 0.7556                 0.5304
 IR Inten    --      6.4736                 3.1223                18.6986

                     28                     29                     30
                      A                      A                      A
 Frequencies --    547.2177               665.9022               783.5848
 Red. masses --      6.3572                 3.4407                 1.4922
 Frc consts  --      1.1216                 0.8989                 0.5398
 IR Inten    --    116.2468                 2.9910                13.0527

                     31                     32                     33
                      A                      A                      A
 Frequencies --    844.7823               916.6017               933.2372
 Red. masses --      1.3986                 4.0273                 1.1167
 Frc consts  --      0.5881                 1.9936                 0.5730
 IR Inten    --      5.7267                11.7849               169.8420

                     34                     35                     36
                      A                      A                      A
 Frequencies --    958.4826               973.2131               980.5380
 Red. masses --      1.4494                 1.2952                 1.8303
 Frc consts  --      0.7845                 0.7228                 1.0368
 IR Inten    --     24.5689                43.5103                14.6940

                     37                     38                     39
                      A                      A                      A
 Frequencies --    996.0301              1015.2345              1032.6192
 Red. masses --      1.5896                 1.6321                 1.6214
 Frc consts  --      0.9291                 0.9911                 1.0186
 IR Inten    --      7.4565               154.4233                15.9403

                     40                     41                     42
                      A                      A                      A
 Frequencies --   1073.7353              1102.5010              1125.8549
 Red. masses --      2.5661                 3.7737                 1.0591
 Frc consts  --      1.7431                 2.7026                 0.7909
 IR Inten    --     34.1060               238.7573                 0.0657

                     43                     44                     45
                      A                      A                      A
 Frequencies --   1168.4467              1172.8992              1174.8734
 Red. masses --      1.2256                 1.2792                 1.2313
 Frc consts  --      0.9859                 1.0368                 1.0014
 IR Inten    --    214.6788                72.1715                41.4698

                     46                     47                     48
                      A                      A                      A
 Frequencies --   1211.6600              1225.3144              1229.8487
 Red. masses --      1.0660                 1.0525                 1.3469
 Frc consts  --      0.9221                 0.9310                 1.2003
 IR Inten    --     69.7198                61.7906                22.3733

                     49                     50                     51
                      A                      A                      A
 Frequencies --   1242.6556              1265.9135              1276.1823
 Red. masses --      1.2751                 1.3683                 1.2169
 Frc consts  --      1.1601                 1.2919                 1.1677
 IR Inten    --    276.4217               150.4779                 9.0376

                     52                     53                     54
                      A                      A                      A
 Frequencies --   1279.1005              1282.3600              1287.6139
 Red. masses --      1.5899                 1.3303                 2.0373
 Frc consts  --      1.5326                 1.2889                 1.9901
 IR Inten    --    177.0033               338.6860                95.7541

                     55                     56                     57
                      A                      A                      A
 Frequencies --   1306.9455              1322.1472              1324.0375
 Red. masses --      1.6066                 1.6127                 2.0863
 Frc consts  --      1.6168                 1.6610                 2.1549
 IR Inten    --     46.3871               212.7580               169.5424

                     58                     59                     60
                      A                      A                      A
 Frequencies --   1378.6632              1380.4172              1717.4289
 Red. masses --      1.1122                 1.1170                11.1466
 Frc consts  --      1.2455                 1.2541                19.3709
 IR Inten    --    116.2487               233.4336               792.0896

                     61                     62                     63
                      A                      A                      A
 Frequencies --   1779.6909              1792.3476              2423.2832
 Red. masses --      9.3237                 9.3099                 1.0806
 Frc consts  --     17.3991                17.6214                 3.7386
 IR Inten    --     85.8005                13.2084               898.2641

                     64                     65                     66
                      A                      A                      A
 Frequencies --   2436.0810              2586.8933              2590.4483
 Red. masses --      1.0833                 1.0244                 1.0233
 Frc consts  --      3.7878                 4.0389                 4.0459
 IR Inten    --    404.5734               101.7196                59.9436

                     67                     68                     69
                      A                      A                      A
 Frequencies --   2639.3543              2645.9903              2655.5985
 Red. masses --      1.0860                 1.0889                 1.0849
 Frc consts  --      4.4572                 4.4918                 4.5077
 IR Inten    --    236.7397                82.6242               218.3127

                     70                     71                     72
                      A                      A                      A
 Frequencies --   2678.5179              2684.0644              2700.6752
 Red. masses --      1.0842                 1.0836                 1.0611
 Frc consts  --      4.5831                 4.5996                 4.5597
 IR Inten    --    103.5824                72.5723               105.8161

                     73                     74                     75
                      A                      A                      A
 Frequencies --   2705.7098              2730.1920              2732.9276
 Red. masses --      1.0516                 1.0699                 1.0741
 Frc consts  --      4.5360                 4.6988                 4.7265
 IR Inten    --     56.0098                17.5981               182.1663

                     76                     77                     78
                      A                      A                      A
 Frequencies --   2748.0840              2769.1138              2784.6328
 Red. masses --      1.0757                 1.0336                 1.0328
 Frc consts  --      4.7865                 4.6696                 4.7185
 IR Inten    --    238.3766               138.7803                76.0749

 - Thermochemistry -
 -------------------
 Temperature   298.150 Kelvin.  Pressure   1.00000 Atm.
 Atom     1 has atomic number  6 and mass  12.00000

 Molecular mass:   176.10486 amu.
 Principal axes and moments of inertia in atomic units:
                           1         2         3
     Eigenvalues --   971.571166432.756307332.40356
           X            0.99999  -0.00512  -0.00184
           Y            0.00512   0.99999  -0.00134
           Z            0.00184   0.00133   1.00000
 This molecule is an asymmetric top.
 Rotational symmetry number  1.
 Warning -- assumption of classical behavior for rotation
           may cause significant error
 Rotational temperatures (Kelvin)      0.08915     0.01346     0.01181
 Rotational constants (GHZ):           1.85755     0.28055     0.24613
 Zero-point vibrational energy     527314.3 (Joules/Mol)
                                  126.03115 (Kcal/Mol)
 Warning -- explicit consideration of  28 degrees of freedom as
           vibrations may cause significant error
 Vibrational temperatures:     23.97    41.44    46.61    58.85    67.14
          (Kelvin)             77.24    95.38   106.96   135.41   148.65
                              165.20   174.22   178.29   179.93   199.22
                              219.39   230.75   243.17   271.34   317.84
                              442.89   447.96   500.84   509.97   608.98
                              757.66   772.55   787.32   958.08  1127.40
                             1215.45  1318.78  1342.72  1379.04  1400.23
                             1410.77  1433.06  1460.69  1485.71  1544.86
                             1586.25  1619.85  1681.13  1687.54  1690.38
                             1743.31  1762.95  1769.48  1787.90  1821.36
                             1836.14  1840.34  1845.03  1852.59  1880.40
                             1902.27  1904.99  1983.59  1986.11  2470.99
                             2560.58  2578.79  3486.56  3504.97  3721.96
                             3727.07  3797.44  3806.99  3820.81  3853.78
                             3861.77  3885.66  3892.91  3928.13  3932.07
                             3953.87  3984.13  4006.46

 Zero-point correction=                           0.200843 (Hartree/Particle)
 Thermal correction to Energy=                    0.221672
 Thermal correction to Enthalpy=                  0.222616
 Thermal correction to Gibbs Free Energy=         0.146954
 Sum of electronic and zero-point Energies=             -0.124651
 Sum of electronic and thermal Energies=                -0.103823
 Sum of electronic and thermal Enthalpies=              -0.102878
 Sum of electronic and thermal Free Energies=           -0.178541

                     E (Thermal)             CV                S
                      KCal/Mol        Cal/Mol-Kelvin    Cal/Mol-Kelvin
 Total                  139.101             65.256            159.245
 Electronic               0.000              0.000              0.000
 Translational            0.889              2.981             41.405
 Rotational               0.889              2.981             32.194
 Vibrational            137.324             59.295             85.646
 Vibration     1          0.593              1.986              6.997
 Vibration     2          0.593              1.984              5.910
 Vibration     3          0.594              1.983              5.677
 Vibration     4          0.594              1.981              5.215
 Vibration     5          0.595              1.979              4.954
 Vibration     6          0.596              1.976              4.677
 Vibration     7          0.598              1.970              4.260
 Vibration     8          0.599              1.966              4.035
 Vibration     9          0.603              1.953              3.573
 Vibration    10          0.605              1.947              3.391
 Vibration    11          0.608              1.937              3.186
 Vibration    12          0.609              1.932              3.083
 Vibration    13          0.610              1.929              3.038
 Vibration    14          0.610              1.928              3.021
 Vibration    15          0.614              1.915              2.825
 Vibration    16          0.619              1.900              2.641
 Vibration    17          0.622              1.891              2.545
 Vibration    18          0.625              1.881              2.446
 Vibration    19          0.633              1.856              2.242
 Vibration    20          0.648              1.809              1.952
 Vibration    21          0.698              1.659              1.374
 Vibration    22          0.700              1.652              1.355
 Vibration    23          0.726              1.579              1.175
 Vibration    24          0.730              1.566              1.146
 Vibration    25          0.785              1.420              0.881
 Vibration    26          0.882              1.191              0.595
 Vibration    27          0.892              1.168              0.572
 Vibration    28          0.902              1.146              0.550

 Normal termination of Gaussian 09 at Tue Aug 18 03:56:01 2020.
