 Gaussian 09, Revision D.01,
 Gaussian 09:  ES64L-G09RevD.01 24-Apr-2013

 ----------------------------------------------------------------------
 # freq pm6 scrf=(cpcm,solvent=toluene) geom=connectivity empiricaldisp
 ersion=gd3
 ----------------------------------------------------------------------

 -------------------
 Title Card Required
 -------------------
 Symbolic Z-matrix:
 Charge =  0 Multiplicity = 1

                         Standard orientation:
 ---------------------------------------------------------------------
 Center     Atomic      Atomic             Coordinates (Angstroms)
 Number     Number       Type             X           Y           Z
 ---------------------------------------------------------------------
      1          6           0        0.536179   -0.691243    1.077193
      2          6           0        1.005029   -1.904111    0.124764
      3          6           0       -1.228853   -2.372397    0.684892
      4          6           0       -0.853669   -1.162955    1.559685
      5          1           0        1.167739   -0.078457    1.725326
      6          1           0       -1.542490   -0.501499    2.053691
      7          6           0       -0.278487   -2.454232   -0.514831
      8          1           0       -0.140590   -3.488643   -0.874530
      9          1           0       -0.625089   -1.866128   -1.383610
     10          6           0        1.037993   -2.330126    1.534002
     11          1           0        1.901137   -2.517186    2.146894
     12          6           0       -0.399260   -2.576905    1.970274
     13          1           0       -0.671075   -3.167745    2.823479
     14          1           0        1.906425   -1.784484   -0.490607
     15          1           0       -2.247227   -2.722839    0.579264
     16          7           0       -0.586575    0.581724   -0.985155
     17          7           0        0.222522    0.754662    0.002882
     18          6           0       -1.982967    0.414878   -0.732231
     19          6           0        1.539940    1.261517   -0.445241
     20          8           0        1.822280    2.434898   -0.386981
     21          8           0       -2.731100   -0.211100   -1.452643
     22          8           0        2.379033    0.250972   -0.772654
     23          8           0       -2.418372    1.144344    0.352492
     24          6           0       -3.840923    1.105986    0.665643
     25          1           0       -3.938278    1.887659    1.429075
     26          1           0       -4.435102    1.334059   -0.229424
     27          1           0       -4.088209    0.117493    1.062342
     28          6           0        3.764891    0.580582   -1.097422
     29          1           0        3.791669    1.073412   -2.072379
     30          1           0        4.200826    1.216218   -0.313767
     31          1           0        4.223683   -0.421089   -1.126092
     32          8           0        4.012454    3.272282    0.473264
     33          1           0        3.268960    3.178472    1.075515
     34          1           0        3.621522    3.544490   -0.365391
     35          8           0        3.866420   -2.624972   -1.097605
     36          1           0        4.487202   -3.193263   -0.643109
     37          1           0        3.761106   -2.985996   -1.978104
     38          8           0       -1.304875    2.778291    1.920342
     39          1           0       -1.661856    2.993491    1.054425
     40          1           0       -1.051427    1.852976    1.868885
     41          8           0       -5.130553    0.094176   -2.067986
     42          1           0       -4.733242   -0.651446   -1.604078
     43          1           0       -4.408851    0.488696   -2.568103
 ---------------------------------------------------------------------

 SCF Done:  E(RPM6D3) = -0.411127858509     A.U. after   19 cycles

 The electronic state is 1-A.
 Alpha  occ. eigenvalues --   -1.27210  -1.23976  -1.20811  -1.19356  -1.15853
 Alpha  occ. eigenvalues --   -1.13468  -1.12569  -1.10066  -1.09558  -1.09437
 Alpha  occ. eigenvalues --   -1.03756  -0.99512  -0.95971  -0.95593  -0.91675
 Alpha  occ. eigenvalues --   -0.86970  -0.82069  -0.76155  -0.75827  -0.73739
 Alpha  occ. eigenvalues --   -0.72059  -0.70686  -0.70414  -0.69027  -0.67888
 Alpha  occ. eigenvalues --   -0.67430  -0.67347  -0.64988  -0.64365  -0.63641
 Alpha  occ. eigenvalues --   -0.62129  -0.61041  -0.59001  -0.57022  -0.56643
 Alpha  occ. eigenvalues --   -0.56180  -0.54496  -0.54444  -0.53791  -0.53330
 Alpha  occ. eigenvalues --   -0.52546  -0.51915  -0.51626  -0.51450  -0.51349
 Alpha  occ. eigenvalues --   -0.49943  -0.49224  -0.48942  -0.48250  -0.45908
 Alpha  occ. eigenvalues --   -0.45475  -0.45326  -0.44887  -0.44225  -0.43786
 Alpha  occ. eigenvalues --   -0.43671  -0.42911  -0.42622  -0.42437  -0.42251
 Alpha  occ. eigenvalues --   -0.38513  -0.32863
 Alpha virt. eigenvalues --   -0.07515  -0.00933  -0.00322   0.01014   0.02876
 Alpha virt. eigenvalues --    0.04093   0.06041   0.07030   0.07456   0.08713
 Alpha virt. eigenvalues --    0.09585   0.09990   0.10146   0.10554   0.11386

 Mulliken charges:
               1
     1  C   -0.239252
     2  C   -0.037375
     3  C   -0.110149
     4  C   -0.157383
     5  H    0.189962
     6  H    0.178270
     7  C   -0.281738
     8  H    0.166104
     9  H    0.182552
    10  C   -0.024324
    11  H    0.172607
    12  C   -0.218296
    13  H    0.181831
    14  H    0.205609
    15  H    0.167597
    16  N   -0.401575
    17  N   -0.049616
    18  C    0.727007
    19  C    0.684839
    20  O   -0.519240
    21  O   -0.558139
    22  O   -0.407216
    23  O   -0.467644
    24  C   -0.181217
    25  H    0.170230
    26  H    0.168324
    27  H    0.148853
    28  C   -0.194492
    29  H    0.153671
    30  H    0.174175
    31  H    0.183603
    32  O   -0.658813
    33  H    0.326313
    34  H    0.330978
    35  O   -0.644827
    36  H    0.323329
    37  H    0.324771
    38  O   -0.661023
    39  H    0.328103
    40  H    0.327996
    41  O   -0.662602
    42  H    0.329457
    43  H    0.328739
 Sum of Mulliken charges =   0.00000

 Dipole moment (field-independent basis, Debye):
    X=              5.1844    Y=             -9.5963    Z=              1.6509  Tot=             11.0315
 N-N= 1.148977046872D+03 E-N=-2.132058286891D+03  KE=-8.098377300860D+01
  Exact polarizability: 199.677 -35.638 228.117  31.034 -59.809 162.254
 Approx polarizability: 118.351 -14.501 129.753  18.693 -20.192 104.926
 D2PCM: C-PCM CHGder 2nd derivatives, FixD1E=F FixD2E=F DoIter=F DoCFld=F I1PDM=0
 Calling FoFJK, ICntrl=    100127 FMM=F ISym2X=0 I1Cent= 0 IOpClX= 0 NMat=1 NMatS=1 NMatT=0.
 Full mass-weighted force constant matrix:
 Low frequencies --- -818.9932   -0.1195   -0.1016   -0.0360    2.8243    4.5531
 Low frequencies ---    7.3562   14.4895   16.4820
 ******    1 imaginary frequencies (negative Signs) ******
 Diagonal vibrational polarizability:

                      1                      2                      3
                      A                      A                      A
 Frequencies --   -818.9932                14.1997                16.2950
 Red. masses --      9.0438                 5.9729                 6.2852
 Frc consts  --      3.5741                 0.0007                 0.0010
 IR Inten    --   5483.2926                 1.5751                 0.4597

                      4                      5                      6
                      A                      A                      A
 Frequencies --     21.3048                23.9515                28.4185
 Red. masses --      6.8896                 4.2304                 7.4277
 Frc consts  --      0.0018                 0.0014                 0.0035
 IR Inten    --      0.4796                 3.0402                 1.9793

                      7                      8                      9
                      A                      A                      A
 Frequencies --     38.6944                50.3643                59.8861
 Red. masses --      4.1496                 4.8267                 4.9769
 Frc consts  --      0.0037                 0.0072                 0.0105
 IR Inten    --      1.2688                 1.0891                 0.5195

                     10                     11                     12
                      A                      A                      A
 Frequencies --     64.5130                66.3552                79.5602
 Red. masses --      7.1295                 6.1017                 6.3186
 Frc consts  --      0.0175                 0.0158                 0.0236
 IR Inten    --      3.0109                 5.3359                 2.2266

                     13                     14                     15
                      A                      A                      A
 Frequencies --     82.4718                93.9004                96.4515
 Red. masses --      6.2375                 3.1075                 1.9682
 Frc consts  --      0.0250                 0.0161                 0.0108
 IR Inten    --      6.8915                 1.4991                 6.8493

                     16                     17                     18
                      A                      A                      A
 Frequencies --    109.4046               116.7161               127.8007
 Red. masses --      1.7888                 1.1994                 4.2769
 Frc consts  --      0.0126                 0.0096                 0.0412
 IR Inten    --     31.5548                 4.6306                23.3979

                     19                     20                     21
                      A                      A                      A
 Frequencies --    131.4251               133.8935               139.8735
 Red. masses --      3.3260                 1.1225                 2.8453
 Frc consts  --      0.0338                 0.0119                 0.0328
 IR Inten    --      9.2185                37.4941                 4.5040

                     22                     23                     24
                      A                      A                      A
 Frequencies --    148.0865               155.9158               161.5152
 Red. masses --      3.6596                 3.4746                 2.1527
 Frc consts  --      0.0473                 0.0498                 0.0331
 IR Inten    --      5.2857                 2.0253                 8.9581

                     25                     26                     27
                      A                      A                      A
 Frequencies --    173.4991               180.8306               186.1051
 Red. masses --      2.0172                 1.2242                 3.1326
 Frc consts  --      0.0358                 0.0236                 0.0639
 IR Inten    --     38.7225               272.8958                 4.6822

                     28                     29                     30
                      A                      A                      A
 Frequencies --    187.8562               193.5850               201.9535
 Red. masses --      1.5586                 1.9328                 2.2574
 Frc consts  --      0.0324                 0.0427                 0.0542
 IR Inten    --     18.4674                20.6278                16.3511

                     31                     32                     33
                      A                      A                      A
 Frequencies --    208.2189               216.3083               238.1278
 Red. masses --      1.1398                 2.1786                 1.0603
 Frc consts  --      0.0291                 0.0601                 0.0354
 IR Inten    --     26.0021                25.5636                31.7607

                     34                     35                     36
                      A                      A                      A
 Frequencies --    265.3314               278.1362               282.8102
 Red. masses --      2.1085                 1.0754                 1.5090
 Frc consts  --      0.0875                 0.0490                 0.0711
 IR Inten    --     16.9007               140.4715                68.2035

                     37                     38                     39
                      A                      A                      A
 Frequencies --    301.0151               308.6361               349.0202
 Red. masses --      4.1611                 4.0646                 6.8532
 Frc consts  --      0.2221                 0.2281                 0.4919
 IR Inten    --      7.2041                16.3782                40.1370

                     40                     41                     42
                      A                      A                      A
 Frequencies --    365.4009               395.9292               401.8537
 Red. masses --      1.0954                 1.0956                 1.0718
 Frc consts  --      0.0862                 0.1012                 0.1020
 IR Inten    --    220.5469               809.2026               144.2865

                     43                     44                     45
                      A                      A                      A
 Frequencies --    415.6593               462.0634               489.4041
 Red. masses --      1.9094                 9.0376                 2.8955
 Frc consts  --      0.1944                 1.1369                 0.4086
 IR Inten    --      3.3932                11.8796                17.0823

                     46                     47                     48
                      A                      A                      A
 Frequencies --    553.6815               569.4948               606.9664
 Red. masses --      6.1867                 9.2409                 6.6633
 Frc consts  --      1.1174                 1.7658                 1.4463
 IR Inten    --      9.9088                24.9528                42.7764

                     49                     50                     51
                      A                      A                      A
 Frequencies --    634.5164               668.8689               674.8422
 Red. masses --      4.8966                 8.1832                 6.9411
 Frc consts  --      1.1615                 2.1570                 1.8624
 IR Inten    --     21.7417                17.2066                19.8486

                     52                     53                     54
                      A                      A                      A
 Frequencies --    721.3774               740.4100               746.3108
 Red. masses --      6.0041                 6.3297                 6.8227
 Frc consts  --      1.8409                 2.0444                 2.2390
 IR Inten    --     33.6226               108.8996                 9.1005

                     55                     56                     57
                      A                      A                      A
 Frequencies --    865.9749               871.1225               885.2128
 Red. masses --      1.9292                 1.5464                 1.5770
 Frc consts  --      0.8524                 0.6914                 0.7281
 IR Inten    --      1.0058                26.2099                69.6765

                     58                     59                     60
                      A                      A                      A
 Frequencies --    912.1986               921.9671               937.4471
 Red. masses --      1.3093                 3.6815                 3.2809
 Frc consts  --      0.6419                 1.8438                 1.6988
 IR Inten    --     41.2102                35.7871                37.5563

                     61                     62                     63
                      A                      A                      A
 Frequencies --    948.4241               986.7691              1002.9833
 Red. masses --      2.3703                 1.6252                 1.2826
 Frc consts  --      1.2562                 0.9324                 0.7602
 IR Inten    --     28.4872                 4.7261                 8.0023

                     64                     65                     66
                      A                      A                      A
 Frequencies --   1014.8290              1026.1677              1036.6794
 Red. masses --      1.4054                 1.3795                 1.4644
 Frc consts  --      0.8528                 0.8559                 0.9273
 IR Inten    --      1.2263                15.1325                24.9443

                     67                     68                     69
                      A                      A                      A
 Frequencies --   1057.9472              1062.6409              1066.2631
 Red. masses --      1.3404                 1.2835                 1.3108
 Frc consts  --      0.8839                 0.8540                 0.8781
 IR Inten    --      9.1636                 9.0952                 6.3677

                     70                     71                     72
                      A                      A                      A
 Frequencies --   1078.5478              1083.9298              1092.0427
 Red. masses --      1.6811                 2.0616                 1.6386
 Frc consts  --      1.1522                 1.4271                 1.1514
 IR Inten    --      9.1553                33.4341                49.2492

                     73                     74                     75
                      A                      A                      A
 Frequencies --   1094.6748              1110.1672              1115.9586
 Red. masses --      3.7875                 1.4960                 1.7370
 Frc consts  --      2.6740                 1.0863                 1.2745
 IR Inten    --    239.3277                25.6208                36.4280

                     76                     77                     78
                      A                      A                      A
 Frequencies --   1117.6032              1139.5103              1165.4563
 Red. masses --      1.1544                 1.8790                 1.9534
 Frc consts  --      0.8495                 1.4375                 1.5633
 IR Inten    --     23.1634                88.8305                38.4065

                     79                     80                     81
                      A                      A                      A
 Frequencies --   1167.8660              1193.2430              1205.1405
 Red. masses --      1.4468                 1.9472                 2.4369
 Frc consts  --      1.1627                 1.6335                 2.0852
 IR Inten    --      3.6413                 3.4958                15.3670

                     82                     83                     84
                      A                      A                      A
 Frequencies --   1221.0276              1221.8408              1226.5197
 Red. masses --      2.9084                 1.1379                 1.0950
 Frc consts  --      2.5547                 1.0009                 0.9705
 IR Inten    --     40.0489                45.6085               107.8579

                     85                     86                     87
                      A                      A                      A
 Frequencies --   1228.3588              1237.3173              1240.7064
 Red. masses --      2.5459                 1.3009                 1.3588
 Frc consts  --      2.2633                 1.1734                 1.2324
 IR Inten    --    544.2753               154.2253                29.4704

                     88                     89                     90
                      A                      A                      A
 Frequencies --   1240.9607              1260.2613              1279.8143
 Red. masses --      1.3314                 2.5470                 1.1606
 Frc consts  --      1.2080                 2.3834                 1.1200
 IR Inten    --    200.1035                24.7413                44.5124

                     91                     92                     93
                      A                      A                      A
 Frequencies --   1326.4468              1328.8008              1371.0389
 Red. masses --      1.1784                 1.2515                 5.0797
 Frc consts  --      1.2216                 1.3020                 5.6258
 IR Inten    --    103.8120                89.6411               103.6713

                     94                     95                     96
                      A                      A                      A
 Frequencies --   1375.6071              1412.3968              1417.6839
 Red. masses --      1.1136                 1.1114                 1.1156
 Frc consts  --      1.2415                 1.3062                 1.3211
 IR Inten    --    120.7017               210.0887               272.2773

                     97                     98                     99
                      A                      A                      A
 Frequencies --   1421.8247              1422.7187              1555.0905
 Red. masses --      2.3107                 1.5960                 9.8361
 Frc consts  --      2.7522                 1.9034                14.0148
 IR Inten    --    127.1434               229.7863              1832.8848

                    100                    101                    102
                      A                      A                      A
 Frequencies --   1773.1987              1780.9638              2488.4147
 Red. masses --     12.3029                12.4854                 1.0831
 Frc consts  --     22.7914                23.3326                 3.9515
 IR Inten    --    804.6200               755.3733                70.6426

                    103                    104                    105
                      A                      A                      A
 Frequencies --   2489.6265              2493.4560              2502.6270
 Red. masses --      1.0831                 1.0828                 1.0837
 Frc consts  --      3.9554                 3.9666                 3.9991
 IR Inten    --    526.4247               355.4592               319.0562

                    106                    107                    108
                      A                      A                      A
 Frequencies --   2611.0242              2628.0005              2630.8345
 Red. masses --      1.0202                 1.0537                 1.0191
 Frc consts  --      4.0980                 4.2874                 4.1559
 IR Inten    --    109.1605                58.5397                53.5049

                    109                    110                    111
                      A                      A                      A
 Frequencies --   2634.4304              2644.1676              2652.1525
 Red. masses --      1.0301                 1.0552                 1.0790
 Frc consts  --      4.2123                 4.3467                 4.4718
 IR Inten    --     39.3415                90.3682               114.7936

                    112                    113                    114
                      A                      A                      A
 Frequencies --   2662.5752              2664.2853              2678.4756
 Red. masses --      1.0885                 1.0860                 1.0923
 Frc consts  --      4.5464                 4.5419                 4.6170
 IR Inten    --     75.9627                92.3023                98.6635

                    115                    116                    117
                      A                      A                      A
 Frequencies --   2682.9060              2698.4279              2735.7919
 Red. masses --      1.0751                 1.0733                 1.0255
 Frc consts  --      4.5595                 4.6047                 4.5220
 IR Inten    --    205.2013               165.7432                55.1855

                    118                    119                    120
                      A                      A                      A
 Frequencies --   2744.8914              2746.8265              2749.9170
 Red. masses --      1.0510                 1.0275                 1.0721
 Frc consts  --      4.6657                 4.5678                 4.7768
 IR Inten    --    134.8765               134.9419               332.7529

                    121                    122                    123
                      A                      A                      A
 Frequencies --   2760.7284              2767.8919              2782.2099
 Red. masses --      1.0735                 1.0752                 1.0802
 Frc consts  --      4.8206                 4.8533                 4.9263
 IR Inten    --     90.6257                71.1315               302.5873

 - Thermochemistry -
 -------------------
 Temperature   298.150 Kelvin.  Pressure   1.00000 Atm.
 Atom     1 has atomic number  6 and mass  12.00000

 Molecular mass:   310.13762 amu.
 Principal axes and moments of inertia in atomic units:
                           1         2         3
     Eigenvalues --  5179.228918680.70526**********
           X            0.99987  -0.01238  -0.01003
           Y            0.01249   0.99987   0.01040
           Z            0.00990  -0.01052   0.99990
 This molecule is an asymmetric top.
 Rotational symmetry number  1.
 Warning -- assumption of classical behavior for rotation
           may cause significant error
 Rotational temperatures (Kelvin)      0.01672     0.00998     0.00797
 Rotational constants (GHZ):           0.34846     0.20790     0.16601
    1 imaginary frequencies ignored.
 Zero-point vibrational energy     765204.6 (Joules/Mol)
                                  182.88828 (Kcal/Mol)
 Warning -- explicit consideration of  47 degrees of freedom as
           vibrations may cause significant error
 Vibrational temperatures:     20.43    23.44    30.65    34.46    40.89
          (Kelvin)             55.67    72.46    86.16    92.82    95.47
                              114.47   118.66   135.10   138.77   157.41
                              167.93   183.88   189.09   192.64   201.25
                              213.06   224.33   232.38   249.63   260.17
                              267.76   270.28   278.53   290.57   299.58
                              311.22   342.61   381.75   400.18   406.90
                              433.09   444.06   502.16   525.73   569.65
                              578.18   598.04   664.81   704.14   796.62
                              819.38   873.29   912.93   962.35   970.95
                             1037.90  1065.28  1073.77  1245.94  1253.35
                             1273.62  1312.45  1326.50  1348.78  1364.57
                             1419.74  1443.07  1460.11  1476.42  1491.55
                             1522.15  1528.90  1534.11  1551.79  1559.53
                             1571.20  1574.99  1597.28  1605.61  1607.98
                             1639.50  1676.83  1680.30  1716.81  1733.93
                             1756.78  1757.95  1764.69  1767.33  1780.22
                             1785.10  1785.46  1813.23  1841.37  1908.46
                             1911.85  1972.62  1979.19  2032.12  2039.73
                             2045.69  2046.97  2237.43  2551.23  2562.41
                             3580.27  3582.01  3587.52  3600.72  3756.68
                             3781.10  3785.18  3790.35  3804.36  3815.85
                             3830.85  3833.31  3853.72  3860.10  3882.43
                             3936.19  3949.28  3952.07  3956.51  3972.07
                             3982.37  4002.97

 Zero-point correction=                           0.291451 (Hartree/Particle)
 Thermal correction to Energy=                    0.323608
 Thermal correction to Enthalpy=                  0.324552
 Thermal correction to Gibbs Free Energy=         0.222807
 Sum of electronic and zero-point Energies=             -0.119677
 Sum of electronic and thermal Energies=                -0.087520
 Sum of electronic and thermal Enthalpies=              -0.086575
 Sum of electronic and thermal Free Energies=           -0.188321

                     E (Thermal)             CV                S
                      KCal/Mol        Cal/Mol-Kelvin    Cal/Mol-Kelvin
 Total                  203.067            106.216            214.141
 Electronic               0.000              0.000              0.000
 Translational            0.889              2.981             43.092
 Rotational               0.889              2.981             34.546
 Vibrational            201.290            100.254            136.503
 Vibration     1          0.593              1.986              7.314
 Vibration     2          0.593              1.986              7.041
 Vibration     3          0.593              1.985              6.509
 Vibration     4          0.593              1.985              6.276
 Vibration     5          0.593              1.984              5.937
 Vibration     6          0.594              1.981              5.325
 Vibration     7          0.595              1.977              4.803
 Vibration     8          0.597              1.973              4.461
 Vibration     9          0.597              1.971              4.314
 Vibration    10          0.598              1.970              4.259
 Vibration    11          0.600              1.963              3.902
 Vibration    12          0.600              1.961              3.831
 Vibration    13          0.603              1.954              3.577
 Vibration    14          0.603              1.952              3.525
 Vibration    15          0.606              1.942              3.279
 Vibration    16          0.608              1.935              3.154
 Vibration    17          0.611              1.925              2.979
 Vibration    18          0.612              1.922              2.925
 Vibration    19          0.613              1.919              2.889
 Vibration    20          0.615              1.913              2.806
 Vibration    21          0.617              1.905              2.697
 Vibration    22          0.620              1.896              2.599
 Vibration    23          0.622              1.890              2.532
 Vibration    24          0.627              1.875              2.397
 Vibration    25          0.630              1.866              2.320
 Vibration    26          0.632              1.859              2.266
 Vibration    27          0.633              1.857              2.249
 Vibration    28          0.635              1.849              2.193
 Vibration    29          0.639              1.837              2.115
 Vibration    30          0.642              1.828              2.059
 Vibration    31          0.645              1.816              1.990
 Vibration    32          0.656              1.782              1.817
 Vibration    33          0.671              1.737              1.626
 Vibration    34          0.679              1.714              1.545
 Vibration    35          0.682              1.705              1.517
 Vibration    36          0.693              1.672              1.411
 Vibration    37          0.698              1.657              1.370
 Vibration    38          0.726              1.577              1.171
 Vibration    39          0.739              1.543              1.099
 Vibration    40          0.763              1.479              0.978
 Vibration    41          0.767              1.466              0.956
 Vibration    42          0.779              1.436              0.907
 Vibration    43          0.820              1.334              0.760
 Vibration    44          0.845              1.274              0.685
 Vibration    45          0.909              1.132              0.537
 Vibration    46          0.926              1.097              0.505
 Vibration    47          0.966              1.017              0.438

 Normal termination of Gaussian 09 at Mon Sep  7 12:21:42 2020.
