 Gaussian 09, Revision D.01,
 Gaussian 09:  ES64L-G09RevD.01 24-Apr-2013

 ---------------------------------------------------------
 # opt freq scrf=(cpcm,solvent=nitromethane) def2svp m062x
 ---------------------------------------------------------

 --------------
 HSO4- opt freq
 --------------
 Symbolic Z-matrix:
 Charge = -1 Multiplicity = 1

 SCF Done:  E(RM062X) =  -699.193055603     A.U. after   12 cycles
 SCF Done:  E(RM062X) =  -699.254554986     A.U. after   12 cycles
 SCF Done:  E(RM062X) =  -699.292997786     A.U. after   12 cycles
 SCF Done:  E(RM062X) =  -699.294533000     A.U. after   11 cycles
 SCF Done:  E(RM062X) =  -699.295734132     A.U. after   11 cycles
 SCF Done:  E(RM062X) =  -699.295844226     A.U. after   10 cycles
 SCF Done:  E(RM062X) =  -699.295850937     A.U. after    9 cycles
 Optimization completed.
    -- Stationary point found.
 Normal termination of Gaussian 09 at Wed Nov 11 21:05:19 2020.

 -------------------------------------------------------------------
 #N Geom=AllCheck Guess=TCheck SCRF=Check GenChk RM062X/def2SVP Freq
 -------------------------------------------------------------------

 Structure from the checkpoint file:  "HSO4_opt.chk"
 --------------
 HSO4- opt freq
 --------------
 Charge = -1 Multiplicity = 1

                         Standard orientation:
 ---------------------------------------------------------------------
 Center     Atomic      Atomic             Coordinates (Angstroms)
 Number     Number       Type             X           Y           Z
 ---------------------------------------------------------------------
      1         16           0        0.136963    0.023371    0.000909
      2          8           0       -1.446485   -0.439921   -0.010897
      3          1           0       -1.988495    0.362995   -0.009529
      4          8           0        0.818490   -1.270508    0.017481
      5          8           0        0.288894    0.818780    1.224659
      6          8           0        0.313738    0.799533   -1.231869
 ---------------------------------------------------------------------

 SCF Done:  E(RM062X) =  -699.295850937     A.U. after    1 cycles

 The electronic state is 1-A.
 Alpha  occ. eigenvalues --  -90.11689 -19.63373 -19.57429 -19.57324 -19.57312
 Alpha  occ. eigenvalues --   -8.44336  -6.36913  -6.36736  -6.36721  -1.23305
 Alpha  occ. eigenvalues --   -1.09580  -1.06034  -1.05674  -0.67678  -0.57617
 Alpha  occ. eigenvalues --   -0.53097  -0.52073  -0.47874  -0.42169  -0.38936
 Alpha  occ. eigenvalues --   -0.38549  -0.37949  -0.34167  -0.32799  -0.30549
 Alpha virt. eigenvalues --    0.11977   0.19692   0.22926   0.27814   0.28745
 Alpha virt. eigenvalues --    0.43769   0.63173   0.73693   0.74884   0.75651
 Alpha virt. eigenvalues --    0.76101   0.76779   0.93427   0.93754   0.93877

 Mulliken charges:
               1
     1  S    1.136918
     2  O   -0.458785
     3  H    0.213887
     4  O   -0.628780
     5  O   -0.631670
     6  O   -0.631570
 Sum of Mulliken charges =  -1.00000

 Dipole moment (field-independent basis, Debye):
    X=             -3.3073    Y=              0.9435    Z=             -0.0137  Tot=              3.4393
 Quadrupole moment (field-independent basis, Debye-Ang):
   XX=            -34.9029   YY=            -43.4989   ZZ=            -43.7863
   XY=             -1.7883   XZ=              0.0519   YZ=             -0.0072

  Exact polarizability:  28.966  -2.395  30.199  -0.018  -0.010  28.487
 Approx polarizability:  28.122  -2.615  33.529  -0.041  -0.008  31.319

 ******    1 imaginary frequencies (negative Signs) ******

                      1                      2                      3
                      A                      A                      A
 Frequencies --   -195.6594               399.8833               412.9776
 Red. masses --      1.0839                 7.9625                12.0434
 Frc consts  --      0.0244                 0.7502                 1.2102
 IR Inten    --    144.4182                 8.7430                 9.1474

                      4                      5                      6
                      A                      A                      A
 Frequencies --    548.3633               569.1784               574.0813
 Red. masses --      8.8222                17.8669                15.8270
 Frc consts  --      1.5630                 3.4103                 3.0732
 IR Inten    --     82.9554                84.4442                50.8898

                      7                      8                      9
                      A                      A                      A
 Frequencies --    785.9819              1087.4197              1111.6127
 Red. masses --     17.4111                13.2651                 1.2532
 Frc consts  --      6.3372                 9.2418                 0.9124
 IR Inten    --    382.4593               168.3059                66.3441

                     10                     11                     12
                      A                      A                      A
 Frequencies --   1286.4851              1316.4512              3840.8485
 Red. masses --     20.5087                11.2245                 1.0662
 Frc consts  --     19.9985                11.4611                 9.2672
 IR Inten    --    543.2068               529.9037               135.4907

 - Thermochemistry -
 -------------------
 Temperature   298.150 Kelvin.  Pressure   1.00000 Atm.
 Atom     1 has atomic number 16 and mass  31.97207

 Molecular mass:    96.95956 amu.
 Principal axes and moments of inertia in atomic units:
                           1         2         3
     Eigenvalues --   349.97896 357.74656 362.98887
           X            0.93463  -0.35557   0.00666
           Y            0.35560   0.93463  -0.00475
           Z           -0.00453   0.00680   0.99997
 This molecule is an asymmetric top.
 Rotational symmetry number  1.
 Rotational temperatures (Kelvin)      0.24748     0.24211     0.23861
 Rotational constants (GHZ):           5.15671     5.04475     4.97189
    1 imaginary frequencies ignored.
 Zero-point vibrational energy      71376.9 (Joules/Mol)
                                   17.05948 (Kcal/Mol)
 Warning -- explicit consideration of   5 degrees of freedom as
           vibrations may cause significant error
 Vibrational temperatures:    575.34   594.18   788.97   818.92   825.97
          (Kelvin)           1130.85  1564.55  1599.36  1850.96  1894.08
                             5526.12

 Zero-point correction=                           0.027186 (Hartree/Particle)
 Thermal correction to Energy=                    0.031323
 Thermal correction to Enthalpy=                  0.032267
 Thermal correction to Gibbs Free Energy=        -0.000410
 Sum of electronic and zero-point Energies=           -699.268665
 Sum of electronic and thermal Energies=              -699.264528
 Sum of electronic and thermal Enthalpies=            -699.263584
 Sum of electronic and thermal Free Energies=         -699.296261

                     E (Thermal)             CV                S
                      KCal/Mol        Cal/Mol-Kelvin    Cal/Mol-Kelvin
 Total                   19.656             13.733             68.776
 Electronic               0.000              0.000              0.000
 Translational            0.889              2.981             39.626
 Rotational               0.889              2.981             25.322
 Vibrational             17.878              7.771              3.828
 Vibration     1          0.766              1.470              0.963
 Vibration     2          0.777              1.442              0.916
 Vibration     3          0.904              1.143              0.548
 Vibration     4          0.925              1.098              0.506
 Vibration     5          0.930              1.087              0.496

 Normal termination of Gaussian 09 at Wed Nov 11 21:05:41 2020.
